#     Step Nr.          Time[fs]        Kin.[a.u.]          Temp[K]            Pot.[a.u.]        Cons Qty[a.u.]        UsedTime[s]
         0            0.000000         0.389237787       300.150000000     -4259.181565612     -4258.791852566         0.000000000
         1            1.000000         0.385414456       297.201743692     -4259.178721185     -4258.791616067       140.971006319
         2            2.000000         0.384894224       296.800581327     -4259.179223941     -4258.791443009        47.992395561
         3            3.000000         0.389985609       300.726662816     -4259.185656170     -4258.791594201        52.014124885
         4            4.000000         0.398504778       307.295985611     -4259.195801947     -4258.792004054        55.561582722
         5            5.000000         0.404720189       312.088828642     -4259.203661943     -4258.792370174        51.903009806
         6            6.000000         0.403485734       311.136912300     -4259.203904068     -4258.792497947        48.385438755
         7            7.000000         0.393690075       303.583259271     -4259.195210016     -4258.792213549        48.377488986
         8            8.000000         0.380240524       293.212008944     -4259.182545709     -4258.791636461        48.238414500
         9            9.000000         0.371203820       286.243603181     -4259.174565769     -4258.791403466        48.172636893
        10           10.000000         0.369801455       285.162208182     -4259.174723565     -4258.791758254        48.136784546
        11           11.000000         0.371191863       286.234382917     -4259.177770893     -4258.792284106        48.368655991
        12           12.000000         0.367940825       283.727434570     -4259.175724269     -4258.792432299        47.554839518
        13           13.000000         0.358101763       276.140312869     -4259.166343419     -4258.791936404        48.329448987
        14           14.000000         0.348257188       268.548940142     -4259.156683246     -4258.791306367        48.349761937
        15           15.000000         0.346907485       267.508153989     -4259.155880239     -4258.791195109        48.373812329
        16           16.000000         0.355814854       274.376825709     -4259.165724960     -4258.791616156        47.934608873
        17           17.000000         0.369284736       284.763754769     -4259.180102675     -4258.792112984        48.465250541
        18           18.000000         0.380170978       293.158380412     -4259.191555484     -4258.792331011        48.469411314
        19           19.000000         0.385090570       296.951988016     -4259.196734773     -4258.792270849        51.807686150
        20           20.000000         0.384960245       296.851491625     -4259.196741422     -4258.792101706        51.701007038
        21           21.000000         0.382440232       294.908253298     -4259.194447072     -4258.792036656        47.953620851
        22           22.000000         0.379145654       292.367730144     -4259.191394536     -4258.792013148        51.524819251
        23           23.000000         0.376230296       290.119631907     -4259.188510160     -4258.791815690        51.266663920
        24           24.000000         0.375634537       289.660228538     -4259.188134638     -4258.791853974        55.148966569
        25           25.000000         0.376187491       290.086624284     -4259.189147003     -4258.792180279        54.751276232
        26           26.000000         0.373996016       288.396728031     -4259.186966772     -4258.792107939        54.817221016
        27           27.000000         0.369815429       285.172983769     -4259.182334523     -4258.791631566        55.559669726
        28           28.000000         0.369478511       284.913178642     -4259.181661251     -4258.791343928        51.833686300
        29           29.000000         0.376424508       290.269393318     -4259.188735957     -4258.791598427        48.466324907
        30           30.000000         0.387067803       298.476677095     -4259.199688055     -4258.792091719        48.162811194
        31           31.000000         0.394817631       304.452743728     -4259.207375237     -4258.792237562        48.128883321
        32           32.000000         0.397763926       306.724697762     -4259.209791911     -4258.791909365        48.171192095
        33           33.000000         0.399959767       308.417959716     -4259.211607135     -4258.791707167        47.921854258
        34           34.000000         0.404180473       311.672641432     -4259.215946759     -4258.791969892        51.324306801
        35           35.000000         0.407489643       314.224416710     -4259.219528489     -4258.792332846        51.253990274
        36           36.000000         0.405437694       312.642112196     -4259.217479683     -4258.792356268        51.524388876
        37           37.000000         0.398332899       307.163445730     -4259.209951676     -4258.791887025        51.473346949
        38           38.000000         0.392127547       302.378358848     -4259.203513621     -4258.791565546        51.521200016
        39           39.000000         0.390854487       301.396673710     -4259.202543352     -4258.791757427        51.528187767
        40           40.000000         0.392341982       302.543715083     -4259.204352142     -4258.791948893        51.605707563
        41           41.000000         0.393618671       303.528198483     -4259.205705771     -4258.791869466        51.844063994
        42           42.000000         0.394848847       304.476815043     -4259.207011421     -4258.791753088        47.973921917
        43           43.000000         0.397125901       306.232701854     -4259.209565699     -4258.791792294        51.624973070
        44           44.000000         0.400012596       308.458697700     -4259.212873166     -4258.791912821        51.442632079
        45           45.000000         0.402239327       310.175779921     -4259.215518537     -4258.791949285        47.994159326
        46           46.000000         0.403696247       311.299243927     -4259.217367484     -4258.791858387        48.066518094
        47           47.000000         0.405630795       312.791016812     -4259.219894790     -4258.791849226        48.159502819
        48           48.000000         0.407952018       314.580963952     -4259.223215533     -4258.792106147        51.434437361
        49           49.000000         0.407104119       313.927130482     -4259.223630048     -4258.792466479        51.092080776
        50           50.000000         0.398920638       307.616664497     -4259.216427557     -4258.792392806        47.723283082
        51           51.000000         0.385287137       297.103565620     -4259.203334556     -4258.791772157        47.591201533
        52           52.000000         0.374466604       288.759609561     -4259.193339843     -4258.791387957        51.154354528
        53           53.000000         0.371384739       286.383114379     -4259.191812428     -4258.791712180        51.131409179
        54           54.000000         0.372000000       286.857555587     -4259.194115520     -4258.792150243        51.041638531
        55           55.000000         0.370406583       285.628835945     -4259.193720161     -4258.792082707        47.422686446
        56           56.000000         0.366972014       282.980362723     -4259.191149375     -4258.791684057        47.473878887
        57           57.000000         0.366717209       282.783876776     -4259.191965337     -4258.791510674        47.384083573
        58           58.000000         0.371755588       286.669084231     -4259.198614527     -4258.791888140        47.197089531
        59           59.000000         0.377562900       291.147232653     -4259.206083583     -4258.792306381        54.581521835
        60           60.000000         0.379235432       292.436959820     -4259.208892510     -4258.792179571        54.576748740
        61           61.000000         0.377978017       291.467338659     -4259.208681283     -4258.791951706        54.634113230
        62           62.000000         0.376547918       290.364557087     -4259.208651559     -4258.792080096        54.393991563
        63           63.000000         0.374077167       288.459306057     -4259.207534742     -4258.792176248        54.758854378
        64           64.000000         0.369684152       285.071753560     -4259.204173090     -4258.791982841        47.415794119
        65           65.000000         0.365715663       282.011562498     -4259.201148364     -4258.791756499        47.306710955
        66           66.000000         0.364795207       281.301778141     -4259.201397823     -4258.791822451        47.494660798
        67           67.000000         0.365795642       282.073235721     -4259.203740997     -4258.792127037        47.372487500
        68           68.000000         0.364745217       281.263229470     -4259.203783534     -4258.792248868        47.842448287
        69           69.000000         0.360517343       278.003020752     -4259.200071553     -4258.791874140        47.730974507
        70           70.000000         0.358022961       276.079547161     -4259.197977211     -4258.791480633        47.744507473
        71           71.000000         0.361804692       278.995724328     -4259.202745022     -4258.791770425        47.828825969
        72           72.000000         0.368395146       284.077771496     -4259.210493334     -4258.792311285        47.903745577
        73           73.000000         0.371356312       286.361193504     -4259.213980158     -4258.792281564        47.785390720
        74           74.000000         0.370768381       285.907826272     -4259.213527486     -4258.791919367        47.615787219
        75           75.000000         0.370672587       285.833957868     -4259.213924046     -4258.791975866        47.550357301
        76           76.000000         0.370772131       285.910717858     -4259.214674178     -4258.792253386        47.502087902
        77           77.000000         0.367893115       283.690644078     -4259.212078538     -4258.792229898        47.574699029
        78           78.000000         0.362275383       279.358685208     -4259.206390100     -4258.791932066        47.715734974
        79           79.000000         0.357552811       275.717003674     -4259.201656773     -4258.791793740        47.506095055
        80           80.000000         0.355432695       274.082134423     -4259.199761733     -4258.792007062        47.371878326
        81           81.000000         0.353394378       272.510342757     -4259.197818128     -4258.792215794        51.198995497
        82           82.000000         0.349322361       269.370318645     -4259.193260454     -4258.791979387        54.440605093
        83           83.000000         0.346682295       267.334504400     -4259.189781720     -4258.791539608        54.497398864
        84           84.000000         0.350740452       270.463840332     -4259.193386616     -4258.791650175        51.007495195
        85           85.000000         0.359828548       277.471875486     -4259.202309836     -4258.792216978        50.902422071
        86           86.000000         0.365988178       282.221704543     -4259.207991181     -4258.792619488        47.345358849
        87           87.000000         0.363515757       280.315164899     -4259.204317539     -4258.792419686        47.378086016
        88           88.000000         0.355128728       273.847738761     -4259.194178777     -4258.791779179        47.316690069
        89           89.000000         0.349143225       269.232183138     -4259.186647114     -4258.791473655        47.663809627
        90           90.000000         0.349921935       269.832663739     -4259.186254909     -4258.791706689        47.473375965
        91           91.000000         0.354640678       273.471392597     -4259.189688833     -4258.792009625        47.428394914
        92           92.000000         0.358436670       276.398567323     -4259.191855878     -4258.792145454        47.409687612
        93           93.000000         0.358493970       276.442752672     -4259.189972894     -4258.792121201        47.455981895
        94           94.000000         0.354782567       273.580806372     -4259.184069536     -4258.791969798        47.495527357
        95           95.000000         0.349885683       269.804708966     -4259.176731534     -4258.791680736        50.989121471
        96           96.000000         0.348293346       268.576822193     -4259.172650445     -4258.791463119        50.983397212
        97           97.000000         0.353397563       272.512798545     -4259.175379306     -4258.791498829        51.082751986
        98           98.000000         0.364637040       281.179812017     -4259.184377544     -4258.791818066        51.267613795
        99           99.000000         0.377162676       290.838611152     -4259.194649464     -4258.792242807        51.475599457
       100          100.000000         0.384879479       296.789210984     -4259.199784464     -4258.792378595        47.910049040
       101          101.000000         0.385854133       297.540788687     -4259.197720732     -4258.792006240        48.130234625
       102          102.000000         0.385225965       297.056394502     -4259.193886343     -4258.791363891        47.796030529
       103          103.000000         0.390878603       301.415270279     -4259.196951295     -4258.791240976        51.431687668
       104          104.000000         0.403718149       311.316133098     -4259.207974068     -4258.791799705        51.183961555
       105          105.000000         0.415269833       320.223895779     -4259.217934729     -4258.792455700        51.104340333
       106          106.000000         0.415572309       320.457141431     -4259.216324875     -4258.792582924        47.510058187
       107          107.000000         0.402704984       310.534858480     -4259.200999529     -4258.791909405        47.237649493
       108          108.000000         0.386262645       297.855801755     -4259.182033764     -4258.790949314        47.247849464
       109          109.000000         0.379284885       292.475094123     -4259.173412225     -4258.790737103        47.453399327
       110          110.000000         0.385506749       297.272913035     -4259.178723518     -4258.791203373        47.791580424
       111          111.000000         0.398456692       307.258905292     -4259.190960252     -4258.791830632        47.817407019
       112          112.000000         0.408389938       314.918654525     -4259.200120302     -4258.792323127        47.628263455
       113          113.000000         0.408271753       314.827519128     -4259.198844969     -4258.792304074        47.588189784
       114          114.000000         0.398781525       307.509390709     -4259.187825980     -4258.791769254        51.125567593
       115          115.000000         0.387961529       299.165848853     -4259.175558176     -4258.791205537        54.744100239
       116          116.000000         0.384443321       296.452880281     -4259.171059208     -4258.791054047        47.620465815
       117          117.000000         0.390504574       301.126847883     -4259.176737817     -4258.791481437        47.761311617
       118          118.000000         0.399874442       308.352163771     -4259.185965846     -4258.792125299        50.917206317
       119          119.000000         0.403416038       311.083167877     -4259.188904454     -4258.792250088        47.484757349
       120          120.000000         0.398387162       307.205288544     -4259.182822825     -4258.791844844        51.144162435
       121          121.000000         0.389103763       300.046651492     -4259.172638182     -4258.791524385        51.354946986
       122          122.000000         0.380216823       293.193732236     -4259.163031086     -4258.791355133        51.121301591
       123          123.000000         0.374418028       288.722151297     -4259.156561215     -4258.791243283        51.002035830
       124          124.000000         0.372849683       287.512764956     -4259.154474978     -4258.791320469        47.706152659
       125          125.000000         0.374576466       288.844326254     -4259.155639818     -4258.791401918        47.678099103
       126          126.000000         0.378349443       291.753753390     -4259.158774919     -4258.791454921        47.796357960
       127          127.000000         0.383362919       295.619757666     -4259.163146775     -4258.791541570        47.808632176
       128          128.000000         0.389185067       300.109346651     -4259.168133890     -4258.791455949        47.674465127
       129          129.000000         0.397334658       306.393679323     -4259.175400032     -4258.791323127        55.017165177
       130          130.000000         0.408764303       315.207335261     -4259.186478778     -4258.791695824        54.930360097
       131          131.000000         0.418163189       322.455027328     -4259.195851598     -4258.792321060        47.839125633
       132          132.000000         0.417628511       322.042725078     -4259.194778126     -4258.792314783        47.885618027
       133          133.000000         0.407585944       314.298676694     -4259.183557294     -4258.791542226        47.802430958
       134          134.000000         0.397695809       306.672171336     -4259.172837167     -4258.791029020        47.951989785
       135          135.000000         0.394743731       304.395757245     -4259.169798267     -4258.791214214        48.202966735
       136          136.000000         0.396075152       305.422446181     -4259.171357791     -4258.791688379        47.808567971
       137          137.000000         0.394607017       304.290334341     -4259.169903711     -4258.791921801        47.934519716
       138          138.000000         0.386652905       298.156739951     -4259.161491601     -4258.791662434        47.800573342
       139          139.000000         0.375546857       289.592616320     -4259.149675402     -4258.791158487        48.003030952
       140          140.000000         0.368497756       284.156896730     -4259.142043088     -4258.790828797        47.867327392
       141          141.000000         0.370569576       285.754523646     -4259.143877286     -4258.790920725        47.985785972
       142          142.000000         0.380753688       293.607721379     -4259.154166129     -4258.791433090        55.063817196
       143          143.000000         0.391949964       302.241420665     -4259.165555038     -4258.792083370        58.579779785
       144          144.000000         0.395908299       305.293781717     -4259.169169473     -4258.792204715        54.893081032
       145          145.000000         0.391608926       301.978438768     -4259.163884914     -4258.791668280        51.264439899
       146          146.000000         0.386127846       297.751854919     -4259.157581143     -4258.791287061        47.900158010
       147          147.000000         0.385076929       296.941469545     -4259.156094153     -4258.791307238        47.772746429
       148          148.000000         0.388658302       299.703146709     -4259.159214867     -4258.791328335        47.839806367
       149          149.000000         0.394813940       304.449897075     -4259.165125599     -4258.791583315        47.965519596
       150          150.000000         0.398909241       307.607875976     -4259.169018497     -4258.791877562        48.102487907
       151          151.000000         0.396552451       305.790502264     -4259.166089944     -4258.791779679        51.527572334
       152          152.000000         0.388994522       299.962412943     -4259.157590670     -4258.791292093        48.015060045
       153          153.000000         0.383317620       295.584826518     -4259.150929295     -4258.790767464        48.258128207
       154          154.000000         0.387136016       298.529277341     -4259.154163976     -4258.790677114        48.171297617
       155          155.000000         0.401595402       309.679234459     -4259.168697783     -4258.791277894        51.543208402
       156          156.000000         0.418183132       322.470406056     -4259.185675908     -4258.792181258        51.453162901
       157          157.000000         0.425170994       327.858903705     -4259.192412452     -4258.792355274        47.844022356
       158          158.000000         0.421022951       324.660254380     -4259.187091244     -4258.791472582        47.953339946
       159          159.000000         0.416817797       321.417565898     -4259.182173347     -4258.790919031        47.756918326
       160          160.000000         0.420058303       323.916392772     -4259.185800311     -4258.791344948        47.764169138
       161          161.000000         0.426531876       328.908309752     -4259.192726751     -4258.791698752        51.302397139
       162          162.000000         0.430779800       332.183979601     -4259.197193489     -4258.791642372        51.427234534
       163          163.000000         0.431811073       332.979217147     -4259.198674933     -4258.791609894        54.874515198
       164          164.000000         0.429168376       330.941374578     -4259.196847030     -4258.791719441        51.380522639
       165          165.000000         0.421801889       325.260910948     -4259.190237345     -4258.791555435        51.457497094
       166          166.000000         0.412730186       318.265517091     -4259.181687351     -4258.790969750        51.398420937
       167          167.000000         0.409972057       316.138661688     -4259.179830890     -4258.790598713        51.358756337
       168          168.000000         0.417822281       322.192145614     -4259.189734320     -4258.791185950        51.428077545
       169          169.000000         0.428321469       330.288305145     -4259.203049564     -4258.792270854        51.455298450
       170          170.000000         0.428245321       330.229586325     -4259.205211738     -4258.792468004        47.629036397
       171          171.000000         0.416319421       321.033256643     -4259.194638026     -4258.791510800        47.860991105
       172          172.000000         0.405260873       312.505762188     -4259.185456778     -4258.790888667        47.548384529
       173          173.000000         0.404146766       311.646649083     -4259.187337946     -4258.791214971        47.460416231
       174          174.000000         0.409352522       315.660924393     -4259.196017050     -4258.791814325        51.101182640
       175          175.000000         0.412324390       317.952598542     -4259.202357006     -4258.792085151        51.127321392
       176          176.000000         0.408403236       314.928908761     -4259.201617116     -4258.791992508        51.663675316
       177          177.000000         0.398411757       307.224254621     -4259.194748521     -4258.791767469        51.389404740
       178          178.000000         0.385727103       297.442833419     -4259.185192497     -4258.791592949        51.220537048
       179          179.000000         0.373809385       288.252812786     -4259.176222565     -4258.791381202        47.622473646
       180          180.000000         0.366530582       282.639964828     -4259.171649377     -4258.791126328        47.567874793
       181          181.000000         0.366995225       282.998261317     -4259.175063704     -4258.791316405        47.727385826
       182          182.000000         0.372471070       287.220808189     -4259.183709613     -4258.791899568        47.526654761
       183          183.000000         0.376084705       290.007363389     -4259.189919207     -4258.792069011        47.466244321
       184          184.000000         0.375352164       289.442484238     -4259.191317833     -4258.791951266        47.341641817
       185          185.000000         0.371585671       286.538057093     -4259.189630560     -4258.791984756        47.332997065
       186          186.000000         0.365766611       282.050849343     -4259.185460292     -4258.791811833        47.150458615
       187          187.000000         0.360725058       278.163194387     -4259.181761106     -4258.791566775        47.443845756
       188          188.000000         0.360006889       277.609398313     -4259.182373531     -4258.791533837        47.465867206
       189          189.000000         0.364045488       280.723652702     -4259.187820357     -4258.791772871        47.399144109
       190          190.000000         0.369175670       284.679651234     -4259.194286034     -4258.792099347        50.758625098
       191          191.000000         0.370555396       285.743588785     -4259.196625309     -4258.792187043        51.070562217
       192          192.000000         0.366424873       282.558449833     -4259.193067319     -4258.792020888        47.458275665
       193          193.000000         0.358908945       276.762748979     -4259.185872133     -4258.791746635        47.363102492
       194          194.000000         0.352058806       271.480452890     -4259.179238866     -4258.791525174        47.514653683
       195          195.000000         0.349491648       269.500859773     -4259.176853695     -4258.791430383        47.568642043
       196          196.000000         0.352738115       272.004283604     -4259.180385701     -4258.791593259        51.177509479
       197          197.000000         0.359156834       276.953902062     -4259.187238525     -4258.792039714        47.499725018
       198          198.000000         0.363321642       280.165478514     -4259.191300643     -4258.792059863        47.571137387
       199          199.000000         0.364668948       281.204416952     -4259.192068694     -4258.791695440        47.490477487
       200          200.000000         0.367553140       283.428481599     -4259.194540869     -4258.791580671        47.470110711
       201          201.000000         0.373838129       288.274978296     -4259.200679917     -4258.791803471        47.565268200
       202          202.000000         0.381011078       293.806200424     -4259.207620560     -4258.791990809        47.602861922
       203          203.000000         0.386473399       298.018318578     -4259.212599249     -4258.791951435        47.754775904
       204          204.000000         0.390172138       300.870499507     -4259.215780567     -4258.791880316        47.706155486
       205          205.000000         0.392784969       302.885312168     -4259.217981826     -4258.791901494        51.926259421
       206          206.000000         0.394199335       303.975961528     -4259.218967478     -4258.791881601        48.087498914
       207          207.000000         0.394985523       304.582208364     -4259.219161473     -4258.791668834        48.474881645
       208          208.000000         0.397559265       306.566879084     -4259.221291631     -4258.791572813        48.066198375
       209          209.000000         0.401910887       309.922512432     -4259.225779067     -4258.792016430        48.244072635
       210          210.000000         0.402268070       310.197944467     -4259.226171522     -4258.792304929        48.268571030
       211          211.000000         0.395311384       304.833487149     -4259.218520580     -4258.791807796        47.896110047
       212          212.000000         0.387856774       299.085070516     -4259.210080211     -4258.790988349        48.141935546
       213          213.000000         0.390761287       301.324805455     -4259.212651963     -4258.790819105        48.339413431
       214          214.000000         0.406124547       313.171759926     -4259.228596348     -4258.791552838        48.206117164
       215          215.000000         0.424033975       326.982122226     -4259.247241329     -4258.792371588        47.881777052
       216          216.000000         0.432749369       333.702758776     -4259.256245129     -4258.792596075        54.916174829
       217          217.000000         0.428445301       330.383794758     -4259.251894517     -4258.792299212        55.274991266
       218          218.000000         0.415689465       320.547483522     -4259.239006864     -4258.791755906        55.477382813
       219          219.000000         0.403568584       311.200799623     -4259.226799036     -4258.791156903        51.808479708
       220          220.000000         0.401470791       309.583144561     -4259.225013273     -4258.790899924        48.078188352
       221          221.000000         0.412382746       317.997598433     -4259.237177974     -4258.791517117        48.379939068
       222          222.000000         0.427141193       329.378168010     -4259.253730766     -4258.792549726        48.184972685
       223          223.000000         0.431191892       332.501752778     -4259.259094522     -4258.792916787        48.408118501
       224          224.000000         0.418837034       322.974644266     -4259.247294814     -4258.792353202        51.456234634
       225          225.000000         0.397995996       306.903651666     -4259.226667949     -4258.791363280        54.975107651
       226          226.000000         0.382918749       295.277248141     -4259.212195445     -4258.790769346        55.109002955
       227          227.000000         0.382208352       294.729444794     -4259.212924578     -4258.791043529        54.906426191