    #         X           Y           Z       CHARGE      MIN DIST   ATOMIC VOL
 --------------------------------------------------------------------------------
    1    9.719248    0.071976   25.760657   11.006087     1.033036    12.274685
    2    1.962069    2.508843   25.873743   10.954030     1.078164    11.989700
    3    9.650237    0.128412    3.141312   11.025686     1.047852    16.640803
    4    2.080155    2.458541    3.141047   11.088399     1.123679    16.561312
    5    2.031489    0.021675   25.890389   10.996097     1.034669    11.647209
    6    9.691439    2.668847   25.916547   10.979412     1.076780    11.786742
    7    1.933953   10.125444    3.237488   11.009756     1.084548    16.717758
    8    9.893668    2.562314    3.141576   11.066515     1.041529    16.323683
    9    3.349963    1.118597   24.212857   11.002934     1.061156    15.538915
   10    0.608527    3.949595   24.095014   11.057209     1.086965    16.265332
   11    3.406808    1.336059    1.158605   10.976655     1.048760    12.063272
   12    0.627339    3.824148    1.374208   10.957903     1.042450    11.492454
   13    0.762090    1.392597   24.015748   10.821141     0.991253    14.663661
   14    0.659646    1.196810    1.327970   10.972022     1.060186    11.919510
   15    3.149063    3.837848    1.284109   10.994498     1.084110    12.142763
   16    4.645433    9.951740   25.930815   10.954307     1.055184    11.601544
   17    7.223185    2.488804   25.999776   11.002784     1.022787    11.615074
   18    4.409159    0.014927    3.147917   10.826912     1.005024    13.991366
   19    7.092115    2.694713    3.331286   10.796983     0.922216    15.089872
   20    7.137305   10.209484   26.153024   10.986505     1.059976    11.643827
   21    4.685102    2.500153   25.912055   10.930056     1.054050    11.881456
   22    7.070645    0.033534    2.948959   11.055315     1.021767    17.733390
   23    4.622634    2.519373    3.002596   11.023434     1.080667    15.394308
   24    8.275940    1.289847   24.274684   11.046639     1.028598    16.805706
   25    5.932418    3.776197   24.112189   10.984361     1.091740    16.618816
   26    8.397400    1.297720    1.476990   10.977975     1.026567    11.739386
   27    5.860953    3.862180    1.313966   10.970943     1.083136    12.190120
   28    5.910028    1.174931   24.113774   11.031676     1.096792    16.086899
   29    8.343316    3.796645   24.214178   11.021466     1.069217    16.609514
   30    5.842243    1.221040    1.322950   10.995796     1.028280    11.535583
   31    8.333603    3.757283    1.419654   11.003925     1.052057    12.071728
   32    9.720373    5.187402   25.903865   10.999468     1.065904    11.699640
   33    2.100398    7.730802   25.975204   10.960390     1.079915    11.618457
   34    9.512317    5.115631    3.083183   11.073729     1.087509    15.615024
   35    2.039464    7.691849    3.082655   11.048219     1.080906    17.010355
   36    1.920048    5.055514   25.952745   10.991956     1.067540    12.151220
   37    9.700948    7.729166   25.895674   10.993516     1.014332    11.822260
   38    1.655454    5.019935    3.198647   11.090785     1.054438    17.981167
   39    9.624166    7.568855    3.234317   10.966006     1.106765    17.047563
   40    3.254983    6.486349   24.173488   11.028161     1.047652    15.988803
   41    0.902975    8.970245   24.214706   11.045375     1.049362    17.395128
   42    3.227685    6.275532    1.208014   10.966517     1.080275    11.867925
   43    0.763623    9.043755    1.365753   11.016018     1.068504    11.963484
   44    0.530416    6.453735   24.037679   11.060360     1.092761    18.212876
   45    3.308454    8.892646   24.131741   10.831036     1.012520    12.767702
   46    0.776198    6.391471    1.303661   10.992604     1.096323    11.963484
   47    3.240874    8.930883    1.368660   10.956303     1.050900    11.586322
   48    4.560064    5.015845   25.853927   11.002193     1.112735    12.174898
   49    7.101623    7.707287   25.851021   10.979820     1.020607    11.627759
   50    7.135771    7.713626    3.024791   11.073277     1.090133    16.928326
   51    7.026273    5.119413   25.877443   10.960733     1.069319    11.771521
   52    4.578160    7.548510   25.837545   10.968937     1.034545    11.483998
   53    7.161637    5.300274    3.202875   11.008565     1.093811    16.143558
   54    4.569163    7.680807    2.967191   11.070948     1.041279    17.740155
   55    8.434104    6.547181   24.299521   11.091335     1.021011    16.560466
   56    5.835291    8.906244   23.984042   10.814497     1.088539    14.291573
   57    8.427561    6.371330    1.243948   10.962460     1.079931    11.797736
   58    5.801450    8.958692    1.343030   10.991362     1.046033    11.416345
   59    5.864531    6.331661   24.022882   10.836841     0.943787    14.200242
   60    8.256719    9.009710   24.220783   10.947045     1.049508    15.830666
   61    5.912072    6.474285    1.221489   10.981090     1.086135    11.864543
   62    8.556689    8.915752    1.395874   10.994957     1.082013    12.055661
   63    3.327777    3.667722   23.802523   11.052629     1.299203    23.093153
   64    4.461914    5.140475    3.234317   11.169556     1.251386    23.571793
   65    5.835086    8.049379    6.630601    8.018680     1.096609    25.975991
   66    8.312951    6.835802    5.975600    8.067809     0.938423    22.617049
   67    0.838973    1.789898   16.530132    7.994855     1.028320    26.283810
   68    4.254676    0.244760    5.343057    8.006339     1.097040    22.126569
   69    0.828545    1.154278    6.149456    8.079400     1.015118    24.419140
   70    7.295775    3.009712   12.152535    8.003315     0.991079    28.819084
   71    1.020959    5.424290   17.223445    7.991981     1.066618    27.501553
   72    8.080766    1.259789   20.524081    8.008626     1.002828    25.987830
   73    6.830485    4.003373   20.905351    8.018193     1.210034    26.221231
   74    1.860341    8.490438   13.576680    7.994310     0.926508    28.924791
   75    7.327060    2.339535   17.121456    7.987041     0.982111    24.441973
   76    0.564768    1.567528   21.789695    7.979044     1.016615    22.108810
   77    6.055309    4.896839   18.036186    7.995029     0.995295    26.838560
   78    7.653918    4.045393    8.800640    7.984520     1.196001    27.951442
   79    6.916571    6.009711   15.540628    7.987489     1.046163    22.871591
   80    9.505569    4.391472   10.974906    8.010653     1.026521    30.775085
   81    3.911357    8.434820   16.616003    7.999524     1.017184    26.766679
   82    4.496165    5.356506    9.148353    7.987843     1.034302    28.769190
   83    7.243633    3.185563    5.423115    8.006798     1.020381    21.379855
   84    4.741538    1.004089   13.993620    8.006952     1.020014    26.963717
   85    2.062365    8.804925   10.995251    7.965470     0.989222    32.013124
   86    3.348225    8.863815   21.881379    8.005648     1.144568    23.181946
   87    9.476124    7.264490   20.831897    8.025528     1.038331    27.017838
   88    3.281156    3.232082   12.932512    8.022616     0.969665    30.382701
   89    8.758304    6.782433   11.995588    8.010648     0.926375    26.883379
   90    3.631427    4.173089   15.478008    8.027972     1.029893    26.105377
   91    3.015642    5.620691   21.220829    8.020709     1.095698    27.118471
   92    9.126262    4.137817   18.603202    8.020110     1.148295    28.315919
   93    6.017788    9.560369   12.656931    7.978371     0.899873    26.271125
   94    2.984868    2.888252   17.833000    7.994764     1.055911    26.316790
   95   10.006438    6.025251    7.711789    7.991118     0.990179    26.109605
   96    8.236374   10.137815   13.762691    7.978195     0.906944    29.336625
   97    8.358038    9.941823    9.197234    7.998580     1.000459    26.932427
   98    9.551065    7.799404   14.190728    8.013805     1.093327    23.948110
   99    3.843777    8.250994    8.868809    8.009206     1.116645    28.173849
  100    2.239954    3.114813    8.341954    8.020178     1.247277    34.191532
  101    5.558837    6.661995   21.878737    7.971752     1.052712    22.159549
  102    6.756873    8.804720   16.166301    8.016809     1.173361    25.767960
  103    5.114199    1.175135   18.326563    8.006107     1.077970    27.959053
  104    0.600859    0.890399    9.799656    7.996623     1.043636    31.161549
  105    2.339331    2.895204   20.557901    7.994670     0.934902    26.499452
  106    6.928839    6.961454    9.226034    7.996384     1.227279    28.047847
  107    9.969734    7.916059   10.079200    8.003083     0.938847    27.225870
  108    0.985584    2.635721   11.936403    8.015212     1.019073    30.927303
  109    6.406091    2.955729   14.704107    7.980827     1.017367    23.669044
  110    9.206111    4.912277   15.042573    8.003842     0.983854    28.112962
  111    5.677025    8.687043   19.643700    7.973389     1.032067    25.236043
  112    7.068191    9.412225   21.852315    8.012000     1.166488    22.370117
  113    3.710867    2.994069    5.918528    8.055187     1.110235    25.211519
  114    9.570797    2.344647   14.362999    7.997965     1.009241    26.179794
  115    5.139043    2.394335    9.158129    7.971007     1.027139    28.527333
  116    5.609956    5.127797    6.707225    8.020009     1.075994    24.376857
  117    7.695836    6.871994   18.904677    7.986395     0.962945    23.206470
  118    7.854000   10.178506   17.997874    7.999081     0.903919    22.376883
  119    5.829872   10.176972   10.054364    8.008756     1.016045    28.521413
  120    1.647173    6.927919    6.055130    8.056249     0.940353    28.029242
  121    3.288415    6.420609   18.449162    8.016812     1.180791    29.747614
  122    5.659440    6.717102   13.259881    7.994082     0.937251    26.967099
  123    6.847457    0.899805    6.822160    7.999685     1.001831    25.042388
  124    2.529802    0.083938   15.314191    8.002298     0.964162    26.416578
  125    9.699414    7.696552   16.851423    7.988123     0.943312    24.118932
  126    1.028320    9.428174   20.657776    7.999208     1.031091    26.761605
  127    3.509967    6.612921   14.644922    8.023491     0.999690    26.972173
  128    2.399754    9.215108    6.876326    7.987489     0.974272    25.555701
  129    5.097023    4.506593   11.650252    8.008860     0.940550    26.614461
  130    8.928532    9.787339    6.212605    8.025529     0.971438    25.024629
  131    9.896735    3.870871    6.204150    8.059186     1.095034    25.231815
  132    0.439014    9.747875   18.013198    8.003739     1.056114    28.419089
  133    9.439727    4.634085   21.320969    8.089530     1.031183    23.537967
  134    4.537367    1.335855   21.269974    8.081165     1.204797    25.783182
  135    5.337080    8.092728    5.780341    0.000000     0.000000     0.000000
  136    5.237704    8.067475    7.372002    0.000000     0.000000     0.000000
  137    7.491154    7.318472    6.240612    0.000000     0.000000     0.000000
  138    8.193331    6.520088    5.052151    0.000000     0.000000     0.000000
  139    0.517125    1.062570   17.135724    0.000000     0.000000     0.000000
  140    1.519272    1.254064   16.004598    0.000000     0.000000     0.000000
  141    3.391370   10.015435    5.691035    0.000000     0.000000     0.000000
  142    3.959614    1.188017    5.460371    0.000000     0.000000     0.000000
  143    0.622533    2.112871    6.425038    0.000000     0.000000     0.000000
  144    1.011144    1.310908    5.171050    0.000000     0.000000     0.000000
  145    7.167158    3.113791   13.149173    0.000000     0.000000     0.000000
  146    8.178813    3.364992   11.864006    0.000000     0.000000     0.000000
  147    0.944382    4.985685   16.375563    0.000000     0.000000     0.000000
  148    0.297515    6.158571   17.031357    0.000000     0.000000     0.000000
  149    7.712399    0.735814   19.777395    0.000000     0.000000     0.000000
  150    7.527244    2.125344   20.461725    0.000000     0.000000     0.000000
  151    7.818830    4.205601   21.070752    0.000000     0.000000     0.000000
  152    6.698086    4.218892   20.000926    0.000000     0.000000     0.000000
  153    2.337388    7.672219   13.833502    0.000000     0.000000     0.000000
  154    2.126571    8.663017   12.587441    0.000000     0.000000     0.000000
  155    6.945606    2.712196   16.265912    0.000000     0.000000     0.000000
  156    7.895816    2.988753   17.620039    0.000000     0.000000     0.000000
  157    9.862281    1.778754   21.597871    0.000000     0.000000     0.000000
  158    1.094060    2.265105   21.274466    0.000000     0.000000     0.000000
  159    5.163581    5.149881   18.330262    0.000000     0.000000     0.000000
  160    6.108985    5.083119   16.995423    0.000000     0.000000     0.000000
  161    7.419382    4.997647    8.611722    0.000000     0.000000     0.000000
  162    8.249767    3.793885    8.041536    0.000000     0.000000     0.000000
  163    7.284120    6.809526   15.886227    0.000000     0.000000     0.000000
  164    7.737959    5.459972   15.544063    0.000000     0.000000     0.000000
  165    9.062363    4.027399   10.172206    0.000000     0.000000     0.000000
  166    0.153154    3.884571   11.035941    0.000022     2.567095     0.076955
  167    3.429505    9.162455   16.033662    0.000000     0.000000     0.000000
  168    4.870564    8.540842   16.553647    0.000000     0.000000     0.000000
  169    5.064716    5.179939    8.401403    0.000000     0.000000     0.000000
  170    4.239954    6.301296    9.030247    0.000000     0.000000     0.000000
  171    7.059501    2.307943    5.923284    0.000000     0.000000     0.000000
  172    8.202022    3.288006    5.660121    0.000000     0.000000     0.000000
  173    4.177486    1.438809   13.327257    0.000000     0.000000     0.000000
  174    5.258458    0.279624   13.520402    0.000000     0.000000     0.000000
  175    2.769143    8.562823   10.385960    0.000032     2.413080     0.082874
  176    1.769041    9.643387   10.535773    0.000000     0.000000     0.000000
  177    3.865452    9.626415   21.519134    0.000000     0.000000     0.000000
  178    2.394540    9.085775   21.728132    0.000000     0.000000     0.000000
  179    8.751249    7.161126   20.052184    0.000000     0.000000     0.000000
  180    9.048356    7.356607   21.701710    0.000000     0.000000     0.000000
  181    3.900009    3.674879   12.267470    0.000000     0.000000     0.000000
  182    3.386974    3.646967   13.890838    0.000000     0.000000     0.000000
  183    9.005109    5.896225   11.715251    0.000000     0.000000     0.000000
  184    9.292707    7.306715   11.355647    0.000000     0.000000     0.000000
  185    3.475513    5.143542   15.313399    0.000000     0.000000     0.000000
  186    3.331867    3.807176   16.377148    0.000000     0.000000     0.000000
  187    2.303547    6.074019   21.723640    0.000000     0.000000     0.000000
  188    3.025763    6.124627   20.357623    0.000000     0.000000     0.000000
  189    9.996418    4.456496   18.209250    0.000000     0.000000     0.000000
  190    9.372965    3.974746   19.538012    0.000000     0.000000     0.000000
  191    7.054287    9.814331   12.929341    0.000000     0.000000     0.000000
  192    5.838051    8.633879   12.805687    0.000000     0.000000     0.000000
  193    2.131990    2.582659   17.492157    0.000000     0.000000     0.000000
  194    3.653511    2.136591   17.814505    0.000000     0.000000     0.000000
  195   10.105916    6.608524    8.545667    0.000000     0.000000     0.000000
  196    9.258253    6.438297    7.190483    0.000000     0.000000     0.000000
  197    8.658110    0.773131   13.764277    0.000000     0.000000     0.000000
  198    8.961453    9.500661   13.767183    0.000000     0.000000     0.000000
  199    8.183005   10.075756    8.227547    0.000000     0.000000     0.000000
  200    7.417746   10.185969    9.579560    0.000000     0.000000     0.000000
  201    0.267457    7.861259   13.971689    0.000000     0.000000     0.000000
  202    9.135873    7.306715   13.398860    0.000000     0.000000     0.000000
  203    3.181371    8.669969    8.194519    0.000000     0.000000     0.000000
  204    4.418258    8.954910    9.215729    0.000000     0.000000     0.000000
  205    2.732951    3.072077    7.491430    0.000000     0.000000     0.000000
  206    2.866066    3.526223    9.006203    0.000000     0.000000     0.000000
  207    4.638788    6.368570   21.681893    0.000000     0.000000     0.000000
  208    6.110621    5.919638   21.699860    0.000000     0.000000     0.000000
  209    7.259071    9.231466   16.941522    0.000000     0.000000     0.000000
  210    6.845208    9.430628   15.432562    0.000000     0.000000     0.000000
  211    5.137408    1.404253   19.271678    0.000000     0.000000     0.000000
  212    5.975256    1.559043   17.928120    0.000000     0.000000     0.000000
  213    9.891010    0.665985    9.403854    0.000000     0.000000     0.000000
  214    0.979041    1.590634    9.270159    0.000000     0.000000     0.000000
  215    2.559451    3.866372   20.788830    0.000000     0.000000     0.000000
  216    2.636233    2.812390   19.620185    0.000000     0.000000     0.000000
  217    7.463651    7.782944    9.095773    0.000000     0.000000     0.000000
  218    6.849093    6.879560   10.194929    0.000000     0.000000     0.000000
  219    9.434001    8.715159    9.655127    0.000000     0.000000     0.000000
  220    0.592884    8.217153   10.483985    0.000000     0.000000     0.000000
  221    0.999182    1.991820   11.104638    0.000000     0.000000     0.000000
  222    1.848992    2.836008   12.320579    0.000000     0.000000     0.000000
  223    5.884672    2.174521   14.392328    0.000000     0.000000     0.000000
  224    5.666903    3.644002   14.799226    0.000000     0.000000     0.000000
  225    9.585929    5.365912   14.278977    0.000000     0.000000     0.000000
  226    9.299966    3.910131   14.811645    0.000000     0.000000     0.000000
  227    5.025660    9.329513   19.249484    0.000000     0.000000     0.000000
  228    5.098454    8.142007   20.166856    0.000000     0.000000     0.000000
  229    6.714035    9.067986   21.020551    0.000000     0.000000     0.000000
  230    7.428175    0.129230   21.640939    0.000000     0.000000     0.000000
  231    3.200796    3.521520    5.252694    0.000000     0.000000     0.000000
  232    4.452815    3.581943    6.117750    0.000000     0.000000     0.000000
  233   10.128409    2.423473   13.535198    0.000000     0.000000     0.000000
  234   10.206622    1.933953   15.053670    0.000000     0.000000     0.000000
  235    5.793884    3.085573    9.178739    0.000000     0.000000     0.000000
  236    5.286165    1.920560    8.359921    0.000000     0.000000     0.000000
  237    6.392800    4.825374    6.183012    0.000000     0.000000     0.000000
  238    5.327163    5.905120    6.156854    0.000000     0.000000     0.000000
  239    7.108575    6.126979   18.568061    0.000000     0.000000     0.000000
  240    7.093240    7.653509   19.078534    0.000000     0.000000     0.000000
  241    8.846741   10.123092   18.131833    0.000000     0.000000     0.000000
  242    7.792963    0.822615   17.561118    0.000000     0.000000     0.000000
  243    5.628973    0.989980   10.068632    0.000000     0.000000     0.000000
  244    5.855125    9.901745   11.041754    0.000000     0.000000     0.000000
  245    1.363562    6.669152    5.206191    0.000000     0.000000     0.000000
  246    1.032716    6.513647    6.717265    0.000000     0.000000     0.000000
  247    3.522747    7.219096   17.821639    0.000000     0.000000     0.000000
  248    2.605050    5.938143   17.934989    0.000000     0.000000     0.000000
  249    6.349144    6.403126   13.933642    0.000000     0.000000     0.000000
  250    5.556383    5.967384   12.595103    0.000000     0.000000     0.000000
  251    5.978119    0.579286    6.409713    0.000000     0.000000     0.000000
  252    7.496675    0.303241    6.374836    0.000000     0.000000     0.000000
  253    2.275022    9.635310   14.528401    0.000000     0.000000     0.000000
  254    3.288722    0.570903   14.857091    0.000000     0.000000     0.000000
  255    8.826088    7.422142   17.328076    0.000000     0.000000     0.000000
  256    9.354664    7.933440   15.975270    0.000000     0.000000     0.000000
  257    0.752990    0.033432   21.130202    0.000000     0.000000     0.000000
  258    0.279930    8.799097   20.790151    0.000000     0.000000     0.000000
  259    4.335445    6.557609   14.033517    0.000000     0.000000     0.000000
  260    3.620385    7.219811   15.481971    0.000000     0.000000     0.000000
  261    1.626725    9.837130    7.009757    0.000000     0.000000     0.000000
  262    2.029240    8.350779    6.397559    0.000000     0.000000     0.000000
  263    6.002861    3.928636   11.704418    0.000000     0.000000     0.000000
  264    4.987321    4.786830   10.678716    0.000000     0.000000     0.000000
  265    9.138020    8.838153    6.012062    0.000000     0.000000     0.000000
  266    9.728757    0.092015    6.031086    0.000000     0.000000     0.000000
  267   10.191184    4.506695    6.935247    0.000000     0.000000     0.000000
  268    0.227482    3.941211    5.399864    0.000000     0.000000     0.000000
  269    0.748185    9.651566   18.941932    0.000000     0.000000     0.000000
  270    0.183008    8.875674   17.686358    0.000000     0.000000     0.000000
  271    9.583066    5.600141   21.067053    0.000000     0.000000     0.000000
  272    9.777422    4.575604   22.247588    0.000000     0.000000     0.000000
  273    5.017481    1.529086   22.171493    0.000000     0.000000     0.000000
  274    3.935997    2.088334   21.144734    0.000000     0.000000     0.000000
 --------------------------------------------------------------------------------
    VACUUM CHARGE:               0.0000
    VACUUM VOLUME:               0.0000
    NUMBER OF ELECTRONS:      1264.0000
