 274 274   0   0
  0.1007972E+02  0.1022390E-08  0.1022390E-08  0.2642200E-08  0.1000000E-15
  1.000000000000000E-004
  CAR 
 bader                                   
     16.13922226    -22.90418482  301      1.76486723      1.00000000
    -22.904  0.0000E+00  0.0000E+00  0.0000E+00  0.0000E+00
    -22.774  0.0000E+00  0.0000E+00  0.0000E+00  0.0000E+00
    -22.644  0.0000E+00  0.0000E+00  0.0000E+00  0.0000E+00
    -22.514 -0.1297E-26 -0.1299E-26 -0.1687E-27 -0.1690E-27
    -22.384 -0.2761E-22 -0.2765E-22 -0.3593E-23 -0.3598E-23
    -22.253 -0.2501E-18 -0.2504E-18 -0.3255E-19 -0.3259E-19
    -22.123 -0.9622E-15 -0.9633E-15 -0.1253E-15 -0.1254E-15
    -21.993 -0.1517E-11 -0.1518E-11 -0.1975E-12 -0.1977E-12
    -21.863 -0.1034E-08 -0.1035E-08 -0.1348E-09 -0.1349E-09
    -21.733 -0.2951E-06 -0.2953E-06 -0.3854E-07 -0.3857E-07
    -21.603 -0.3478E-04 -0.3480E-04 -0.4565E-05 -0.4568E-05
    -21.473 -0.1653E-02 -0.1654E-02 -0.2197E-03 -0.2198E-03
    -21.342 -0.2986E-01 -0.2987E-01 -0.4106E-02 -0.4107E-02
    -21.212 -0.1669E+00 -0.1669E+00 -0.2582E-01 -0.2583E-01
    -21.082  0.1197E+00  0.1199E+00 -0.1024E-01 -0.1022E-01
    -20.952  0.2338E+01  0.2338E+01  0.2940E+00  0.2941E+00
    -20.822  0.3588E+01  0.3588E+01  0.7609E+00  0.7610E+00
    -20.692  0.1594E+01  0.1593E+01  0.9684E+00  0.9683E+00
    -20.562  0.3560E+01  0.3560E+01  0.1432E+01  0.1432E+01
    -20.431  0.1165E+02  0.1165E+02  0.2948E+01  0.2948E+01
    -20.301  0.2353E+02  0.2353E+02  0.6010E+01  0.6010E+01
    -20.171  0.3027E+02  0.3027E+02  0.9950E+01  0.9950E+01
    -20.041  0.3075E+02  0.3075E+02  0.1395E+02  0.1395E+02
    -19.911  0.3520E+02  0.3520E+02  0.1853E+02  0.1853E+02
    -19.781  0.4105E+02  0.4105E+02  0.2388E+02  0.2388E+02
    -19.651  0.4174E+02  0.4173E+02  0.2931E+02  0.2931E+02
    -19.520  0.3809E+02  0.3809E+02  0.3426E+02  0.3426E+02
    -19.390  0.3693E+02  0.3693E+02  0.3907E+02  0.3907E+02
    -19.260  0.3728E+02  0.3728E+02  0.4392E+02  0.4392E+02
    -19.130  0.3253E+02  0.3253E+02  0.4816E+02  0.4816E+02
    -19.000  0.3075E+02  0.3075E+02  0.5216E+02  0.5216E+02
    -18.870  0.3137E+02  0.3137E+02  0.5624E+02  0.5624E+02
    -18.740  0.3060E+02  0.3060E+02  0.6022E+02  0.6022E+02
    -18.609  0.2751E+02  0.2751E+02  0.6380E+02  0.6380E+02
    -18.479  0.2049E+02  0.2049E+02  0.6647E+02  0.6647E+02
    -18.349  0.1045E+02  0.1045E+02  0.6783E+02  0.6783E+02
    -18.219  0.1898E+01  0.1898E+01  0.6808E+02  0.6808E+02
    -18.089  0.1219E+01  0.1219E+01  0.6824E+02  0.6824E+02
    -17.959  0.4754E+01  0.4753E+01  0.6886E+02  0.6886E+02
    -17.829  0.5681E+01  0.5681E+01  0.6959E+02  0.6959E+02
    -17.698  0.3072E+01  0.3072E+01  0.6999E+02  0.6999E+02
    -17.568  0.3147E+00  0.3148E+00  0.7004E+02  0.7004E+02
    -17.438 -0.2156E+00 -0.2156E+00  0.7001E+02  0.7001E+02
    -17.308 -0.5157E-01 -0.5157E-01  0.7000E+02  0.7000E+02
    -17.178 -0.3593E-02 -0.3594E-02  0.7000E+02  0.7000E+02
    -17.048 -0.9383E-04 -0.9385E-04  0.7000E+02  0.7000E+02
    -16.918 -0.9816E-06 -0.9819E-06  0.7000E+02  0.7000E+02
    -16.787 -0.4228E-08 -0.4230E-08  0.7000E+02  0.7000E+02
    -16.657 -0.7604E-11 -0.7608E-11  0.7000E+02  0.7000E+02
    -16.527 -0.5118E-14 -0.5118E-14  0.7000E+02  0.7000E+02
    -16.397  0.0000E+00  0.0000E+00  0.7000E+02  0.7000E+02
    -16.267  0.0000E+00  0.0000E+00  0.7000E+02  0.7000E+02
    -16.137  0.0000E+00  0.0000E+00  0.7000E+02  0.7000E+02
    -16.007  0.0000E+00  0.0000E+00  0.7000E+02  0.7000E+02
    -15.876  0.0000E+00  0.0000E+00  0.7000E+02  0.7000E+02
    -15.746  0.0000E+00  0.0000E+00  0.7000E+02  0.7000E+02
    -15.616  0.0000E+00  0.0000E+00  0.7000E+02  0.7000E+02
    -15.486  0.0000E+00  0.0000E+00  0.7000E+02  0.7000E+02
    -15.356  0.0000E+00  0.0000E+00  0.7000E+02  0.7000E+02
    -15.226  0.0000E+00  0.0000E+00  0.7000E+02  0.7000E+02
    -15.096  0.0000E+00  0.0000E+00  0.7000E+02  0.7000E+02
    -14.965  0.0000E+00  0.0000E+00  0.7000E+02  0.7000E+02
    -14.835  0.0000E+00  0.0000E+00  0.7000E+02  0.7000E+02
    -14.705  0.0000E+00  0.0000E+00  0.7000E+02  0.7000E+02
    -14.575  0.0000E+00  0.0000E+00  0.7000E+02  0.7000E+02
    -14.445  0.0000E+00  0.0000E+00  0.7000E+02  0.7000E+02
    -14.315  0.0000E+00  0.0000E+00  0.7000E+02  0.7000E+02
    -14.184  0.0000E+00  0.0000E+00  0.7000E+02  0.7000E+02
    -14.054  0.0000E+00  0.0000E+00  0.7000E+02  0.7000E+02
    -13.924  0.0000E+00  0.0000E+00  0.7000E+02  0.7000E+02
    -13.794  0.0000E+00  0.0000E+00  0.7000E+02  0.7000E+02
    -13.664  0.0000E+00  0.0000E+00  0.7000E+02  0.7000E+02
    -13.534  0.0000E+00  0.0000E+00  0.7000E+02  0.7000E+02
    -13.404  0.0000E+00  0.0000E+00  0.7000E+02  0.7000E+02
    -13.273  0.0000E+00  0.0000E+00  0.7000E+02  0.7000E+02
    -13.143  0.0000E+00  0.0000E+00  0.7000E+02  0.7000E+02
    -13.013  0.0000E+00  0.0000E+00  0.7000E+02  0.7000E+02
    -12.883  0.0000E+00  0.0000E+00  0.7000E+02  0.7000E+02
    -12.753  0.0000E+00  0.0000E+00  0.7000E+02  0.7000E+02
    -12.623  0.0000E+00  0.0000E+00  0.7000E+02  0.7000E+02
    -12.493  0.0000E+00  0.0000E+00  0.7000E+02  0.7000E+02
    -12.362  0.0000E+00  0.0000E+00  0.7000E+02  0.7000E+02
    -12.232  0.0000E+00  0.0000E+00  0.7000E+02  0.7000E+02
    -12.102  0.0000E+00  0.0000E+00  0.7000E+02  0.7000E+02
    -11.972  0.0000E+00  0.0000E+00  0.7000E+02  0.7000E+02
    -11.842  0.0000E+00  0.0000E+00  0.7000E+02  0.7000E+02
    -11.712  0.0000E+00  0.0000E+00  0.7000E+02  0.7000E+02
    -11.582  0.0000E+00  0.0000E+00  0.7000E+02  0.7000E+02
    -11.451  0.0000E+00  0.0000E+00  0.7000E+02  0.7000E+02
    -11.321  0.0000E+00  0.0000E+00  0.7000E+02  0.7000E+02
    -11.191  0.0000E+00  0.0000E+00  0.7000E+02  0.7000E+02
    -11.061  0.0000E+00  0.0000E+00  0.7000E+02  0.7000E+02
    -10.931  0.0000E+00  0.0000E+00  0.7000E+02  0.7000E+02
    -10.801  0.0000E+00  0.0000E+00  0.7000E+02  0.7000E+02
    -10.671  0.0000E+00  0.0000E+00  0.7000E+02  0.7000E+02
    -10.540  0.0000E+00  0.0000E+00  0.7000E+02  0.7000E+02
    -10.410  0.0000E+00  0.0000E+00  0.7000E+02  0.7000E+02
    -10.280  0.0000E+00  0.0000E+00  0.7000E+02  0.7000E+02
    -10.150  0.0000E+00  0.0000E+00  0.7000E+02  0.7000E+02
    -10.020 -0.9879E-28 -0.9902E-28  0.7000E+02  0.7000E+02
     -9.890 -0.2598E-23 -0.2603E-23  0.7000E+02  0.7000E+02
     -9.760 -0.2910E-19 -0.2916E-19  0.7000E+02  0.7000E+02
     -9.629 -0.1388E-15 -0.1390E-15  0.7000E+02  0.7000E+02
     -9.499 -0.2730E-12 -0.2734E-12  0.7000E+02  0.7000E+02
     -9.369 -0.2332E-09 -0.2335E-09  0.7000E+02  0.7000E+02
     -9.239 -0.8441E-07 -0.8450E-07  0.7000E+02  0.7000E+02
     -9.109 -0.1291E-04 -0.1292E-04  0.7000E+02  0.7000E+02
     -8.979 -0.8307E-03 -0.8313E-03  0.7000E+02  0.7000E+02
     -8.849 -0.2220E-01 -0.2221E-01  0.7000E+02  0.7000E+02
     -8.718 -0.2351E+00 -0.2351E+00  0.6997E+02  0.6997E+02
     -8.588 -0.7691E+00 -0.7691E+00  0.6987E+02  0.6987E+02
     -8.458  0.1401E+01  0.1402E+01  0.7005E+02  0.7005E+02
     -8.328  0.1215E+02  0.1215E+02  0.7163E+02  0.7163E+02
     -8.198  0.2426E+02  0.2426E+02  0.7479E+02  0.7479E+02
     -8.068  0.2634E+02  0.2634E+02  0.7822E+02  0.7822E+02
     -7.938  0.2823E+02  0.2823E+02  0.8189E+02  0.8189E+02
     -7.807  0.3320E+02  0.3320E+02  0.8621E+02  0.8621E+02
     -7.677  0.3694E+02  0.3694E+02  0.9102E+02  0.9102E+02
     -7.547  0.4393E+02  0.4393E+02  0.9674E+02  0.9674E+02
     -7.417  0.5336E+02  0.5336E+02  0.1037E+03  0.1037E+03
     -7.287  0.5641E+02  0.5641E+02  0.1110E+03  0.1110E+03
     -7.157  0.5396E+02  0.5396E+02  0.1180E+03  0.1180E+03
     -7.027  0.4934E+02  0.4934E+02  0.1245E+03  0.1245E+03
     -6.896  0.3904E+02  0.3904E+02  0.1295E+03  0.1295E+03
     -6.766  0.2772E+02  0.2772E+02  0.1332E+03  0.1332E+03
     -6.636  0.2149E+02  0.2149E+02  0.1360E+03  0.1360E+03
     -6.506  0.2024E+02  0.2024E+02  0.1386E+03  0.1386E+03
     -6.376  0.1444E+02  0.1444E+02  0.1405E+03  0.1405E+03
     -6.246  0.4634E+01  0.4635E+01  0.1411E+03  0.1411E+03
     -6.116 -0.5599E+00 -0.5597E+00  0.1410E+03  0.1410E+03
     -5.985 -0.5078E+00 -0.5075E+00  0.1409E+03  0.1409E+03
     -5.855  0.5140E+01  0.5141E+01  0.1416E+03  0.1416E+03
     -5.725  0.1443E+02  0.1443E+02  0.1435E+03  0.1435E+03
     -5.595  0.1901E+02  0.1901E+02  0.1460E+03  0.1460E+03
     -5.465  0.1724E+02  0.1723E+02  0.1482E+03  0.1482E+03
     -5.335  0.1592E+02  0.1592E+02  0.1503E+03  0.1503E+03
     -5.205  0.1750E+02  0.1750E+02  0.1525E+03  0.1525E+03
     -5.074  0.1751E+02  0.1751E+02  0.1548E+03  0.1548E+03
     -4.944  0.1856E+02  0.1856E+02  0.1572E+03  0.1572E+03
     -4.814  0.2045E+02  0.2045E+02  0.1599E+03  0.1599E+03
     -4.684  0.2806E+02  0.2806E+02  0.1636E+03  0.1636E+03
     -4.554  0.3895E+02  0.3895E+02  0.1686E+03  0.1686E+03
     -4.424  0.4454E+02  0.4454E+02  0.1744E+03  0.1744E+03
     -4.293  0.4066E+02  0.4066E+02  0.1797E+03  0.1797E+03
     -4.163  0.3871E+02  0.3871E+02  0.1847E+03  0.1847E+03
     -4.033  0.3611E+02  0.3611E+02  0.1894E+03  0.1894E+03
     -3.903  0.3140E+02  0.3140E+02  0.1935E+03  0.1935E+03
     -3.773  0.2843E+02  0.2843E+02  0.1972E+03  0.1972E+03
     -3.643  0.2702E+02  0.2702E+02  0.2007E+03  0.2007E+03
     -3.513  0.3992E+02  0.3992E+02  0.2059E+03  0.2059E+03
     -3.382  0.5976E+02  0.5976E+02  0.2137E+03  0.2137E+03
     -3.252  0.6235E+02  0.6235E+02  0.2218E+03  0.2218E+03
     -3.122  0.5219E+02  0.5219E+02  0.2286E+03  0.2286E+03
     -2.992  0.5259E+02  0.5259E+02  0.2355E+03  0.2355E+03
     -2.862  0.5984E+02  0.5984E+02  0.2433E+03  0.2433E+03
     -2.732  0.6902E+02  0.6902E+02  0.2522E+03  0.2522E+03
     -2.602  0.8558E+02  0.8558E+02  0.2634E+03  0.2634E+03
     -2.471  0.9482E+02  0.9483E+02  0.2757E+03  0.2757E+03
     -2.341  0.9353E+02  0.9353E+02  0.2879E+03  0.2879E+03
     -2.211  0.9679E+02  0.9679E+02  0.3005E+03  0.3005E+03
     -2.081  0.1082E+03  0.1082E+03  0.3146E+03  0.3146E+03
     -1.951  0.1183E+03  0.1183E+03  0.3300E+03  0.3300E+03
     -1.821  0.1256E+03  0.1256E+03  0.3463E+03  0.3463E+03
     -1.691  0.1294E+03  0.1294E+03  0.3632E+03  0.3632E+03
     -1.560  0.1248E+03  0.1248E+03  0.3794E+03  0.3794E+03
     -1.430  0.1291E+03  0.1291E+03  0.3962E+03  0.3962E+03
     -1.300  0.1454E+03  0.1454E+03  0.4151E+03  0.4151E+03
     -1.170  0.1482E+03  0.1482E+03  0.4344E+03  0.4344E+03
     -1.040  0.1328E+03  0.1328E+03  0.4517E+03  0.4517E+03
     -0.910  0.1214E+03  0.1214E+03  0.4675E+03  0.4675E+03
     -0.780  0.1293E+03  0.1293E+03  0.4843E+03  0.4843E+03
     -0.649  0.1417E+03  0.1417E+03  0.5028E+03  0.5028E+03
     -0.519  0.1324E+03  0.1324E+03  0.5200E+03  0.5200E+03
     -0.389  0.1221E+03  0.1221E+03  0.5359E+03  0.5359E+03
     -0.259  0.1318E+03  0.1318E+03  0.5530E+03  0.5530E+03
     -0.129  0.1463E+03  0.1463E+03  0.5721E+03  0.5721E+03
      0.001  0.1534E+03  0.1534E+03  0.5920E+03  0.5920E+03
      0.131  0.1220E+03  0.1220E+03  0.6079E+03  0.6079E+03
      0.262  0.4586E+02  0.4586E+02  0.6139E+03  0.6139E+03
      0.392  0.1229E+02  0.1229E+02  0.6155E+03  0.6155E+03
      0.522  0.1784E+02  0.1784E+02  0.6178E+03  0.6178E+03
      0.652  0.1554E+02  0.1554E+02  0.6198E+03  0.6198E+03
      0.782  0.1291E+02  0.1291E+02  0.6215E+03  0.6215E+03
      0.912  0.9182E+01  0.9182E+01  0.6227E+03  0.6227E+03
      1.042  0.3085E+01  0.3085E+01  0.6231E+03  0.6231E+03
      1.173  0.7171E+01  0.7171E+01  0.6240E+03  0.6240E+03
      1.303  0.1503E+02  0.1503E+02  0.6260E+03  0.6260E+03
      1.433  0.1375E+02  0.1375E+02  0.6278E+03  0.6278E+03
      1.563  0.1348E+02  0.1348E+02  0.6295E+03  0.6295E+03
      1.693  0.1417E+02  0.1417E+02  0.6314E+03  0.6314E+03
      1.823  0.7962E+01  0.7963E+01  0.6324E+03  0.6324E+03
      1.953  0.9052E+01  0.9052E+01  0.6336E+03  0.6336E+03
      2.084  0.1141E+02  0.1141E+02  0.6351E+03  0.6351E+03
      2.214  0.1402E+02  0.1402E+02  0.6369E+03  0.6369E+03
      2.344  0.2402E+02  0.2402E+02  0.6400E+03  0.6400E+03
      2.474  0.2339E+02  0.2339E+02  0.6431E+03  0.6431E+03
      2.604  0.9333E+01  0.9331E+01  0.6443E+03  0.6443E+03
      2.734  0.3603E+01  0.3603E+01  0.6447E+03  0.6447E+03
      2.864  0.6812E+01  0.6812E+01  0.6456E+03  0.6456E+03
      2.995  0.1102E+02  0.1102E+02  0.6471E+03  0.6471E+03
      3.125  0.9958E+01  0.9958E+01  0.6484E+03  0.6484E+03
      3.255  0.4158E+01  0.4159E+01  0.6489E+03  0.6489E+03
      3.385  0.5070E+01  0.5071E+01  0.6496E+03  0.6496E+03
      3.515  0.1628E+02  0.1628E+02  0.6517E+03  0.6517E+03
      3.645  0.2205E+02  0.2205E+02  0.6545E+03  0.6545E+03
      3.775  0.1478E+02  0.1478E+02  0.6565E+03  0.6565E+03
      3.906  0.5951E+01  0.5950E+01  0.6572E+03  0.6572E+03
      4.036  0.4568E+01  0.4568E+01  0.6578E+03  0.6578E+03
      4.166  0.9350E+01  0.9352E+01  0.6591E+03  0.6591E+03
      4.296  0.1495E+02  0.1495E+02  0.6610E+03  0.6610E+03
      4.426  0.1482E+02  0.1482E+02  0.6629E+03  0.6629E+03
      4.556  0.1121E+02  0.1121E+02  0.6644E+03  0.6644E+03
      4.686  0.9519E+01  0.9518E+01  0.6656E+03  0.6656E+03
      4.817  0.1100E+02  0.1100E+02  0.6671E+03  0.6671E+03
      4.947  0.1347E+02  0.1347E+02  0.6688E+03  0.6688E+03
      5.077  0.1329E+02  0.1329E+02  0.6705E+03  0.6705E+03
      5.207  0.1147E+02  0.1147E+02  0.6720E+03  0.6720E+03
      5.337  0.8996E+01  0.8996E+01  0.6732E+03  0.6732E+03
      5.467  0.6302E+01  0.6301E+01  0.6740E+03  0.6740E+03
      5.598  0.9314E+01  0.9312E+01  0.6752E+03  0.6752E+03
      5.728  0.1675E+02  0.1675E+02  0.6774E+03  0.6774E+03
      5.858  0.2190E+02  0.2189E+02  0.6803E+03  0.6803E+03
      5.988  0.2192E+02  0.2193E+02  0.6831E+03  0.6831E+03
      6.118  0.2098E+02  0.2099E+02  0.6858E+03  0.6859E+03
      6.248  0.2697E+02  0.2697E+02  0.6894E+03  0.6894E+03
      6.378  0.2451E+02  0.2451E+02  0.6925E+03  0.6925E+03
      6.509  0.1616E+02  0.1616E+02  0.6947E+03  0.6947E+03
      6.639  0.1759E+02  0.1759E+02  0.6969E+03  0.6969E+03
      6.769  0.2115E+02  0.2115E+02  0.6997E+03  0.6997E+03
      6.899  0.2064E+02  0.2064E+02  0.7024E+03  0.7024E+03
      7.029  0.1876E+02  0.1876E+02  0.7048E+03  0.7048E+03
      7.159  0.2120E+02  0.2120E+02  0.7076E+03  0.7076E+03
      7.289  0.2401E+02  0.2401E+02  0.7107E+03  0.7107E+03
      7.420  0.2299E+02  0.2299E+02  0.7137E+03  0.7137E+03
      7.550  0.2032E+02  0.2032E+02  0.7163E+03  0.7163E+03
      7.680  0.1847E+02  0.1846E+02  0.7187E+03  0.7187E+03
      7.810  0.1999E+02  0.1999E+02  0.7213E+03  0.7213E+03
      7.940  0.2662E+02  0.2663E+02  0.7248E+03  0.7248E+03
      8.070  0.3050E+02  0.3051E+02  0.7288E+03  0.7288E+03
      8.200  0.3039E+02  0.3039E+02  0.7327E+03  0.7327E+03
      8.331  0.3341E+02  0.3341E+02  0.7371E+03  0.7371E+03
      8.461  0.3654E+02  0.3654E+02  0.7418E+03  0.7418E+03
      8.591  0.3795E+02  0.3795E+02  0.7468E+03  0.7468E+03
      8.721  0.3773E+02  0.3773E+02  0.7517E+03  0.7517E+03
      8.851  0.3695E+02  0.3695E+02  0.7565E+03  0.7565E+03
      8.981  0.3889E+02  0.3889E+02  0.7616E+03  0.7616E+03
      9.111  0.3914E+02  0.3914E+02  0.7667E+03  0.7667E+03
      9.242  0.3681E+02  0.3681E+02  0.7714E+03  0.7714E+03
      9.372  0.3431E+02  0.3431E+02  0.7759E+03  0.7759E+03
      9.502  0.3906E+02  0.3906E+02  0.7810E+03  0.7810E+03
      9.632  0.4506E+02  0.4506E+02  0.7869E+03  0.7869E+03
      9.762  0.4346E+02  0.4346E+02  0.7925E+03  0.7925E+03
      9.892  0.4325E+02  0.4324E+02  0.7981E+03  0.7981E+03
     10.022  0.4573E+02  0.4573E+02  0.8041E+03  0.8041E+03
     10.153  0.4575E+02  0.4575E+02  0.8100E+03  0.8100E+03
     10.283  0.4417E+02  0.4417E+02  0.8158E+03  0.8158E+03
     10.413  0.4678E+02  0.4678E+02  0.8219E+03  0.8219E+03
     10.543  0.5349E+02  0.5349E+02  0.8288E+03  0.8288E+03
     10.673  0.5777E+02  0.5777E+02  0.8364E+03  0.8364E+03
     10.803  0.5168E+02  0.5168E+02  0.8431E+03  0.8431E+03
     10.933  0.4437E+02  0.4437E+02  0.8489E+03  0.8489E+03
     11.064  0.4255E+02  0.4252E+02  0.8544E+03  0.8544E+03
     11.194  0.4373E+02  0.4351E+02  0.8601E+03  0.8601E+03
     11.324  0.4600E+02  0.4547E+02  0.8661E+03  0.8660E+03
     11.454  0.4416E+02  0.4310E+02  0.8718E+03  0.8716E+03
     11.584  0.4171E+02  0.3906E+02  0.8773E+03  0.8767E+03
     11.714  0.4578E+02  0.4147E+02  0.8832E+03  0.8821E+03
     11.844  0.5091E+02  0.4501E+02  0.8898E+03  0.8879E+03
     11.975  0.5032E+02  0.4219E+02  0.8964E+03  0.8934E+03
     12.105  0.4244E+02  0.3139E+02  0.9019E+03  0.8975E+03
     12.235  0.3309E+02  0.2064E+02  0.9062E+03  0.9002E+03
     12.365  0.2548E+02  0.1538E+02  0.9095E+03  0.9022E+03
     12.495  0.1476E+02  0.1058E+02  0.9115E+03  0.9036E+03
     12.625  0.4600E+01  0.7168E+01  0.9120E+03  0.9045E+03
     12.755  0.1224E+00  0.3770E+01  0.9121E+03  0.9050E+03
     12.886 -0.3961E+00  0.4573E+00  0.9120E+03  0.9050E+03
     13.016 -0.9914E-01 -0.2765E+00  0.9120E+03  0.9050E+03
     13.146 -0.8233E-02 -0.7793E-01  0.9120E+03  0.9050E+03
     13.276 -0.2644E-03 -0.5153E-01  0.9120E+03  0.9050E+03
     13.406 -0.3434E-05 -0.2833E+00  0.9120E+03  0.9050E+03
     13.536 -0.1841E-07 -0.1691E+00  0.9120E+03  0.9049E+03
     13.666 -0.4120E-10  0.3210E+01  0.9120E+03  0.9054E+03
     13.797 -0.3754E-13  0.9802E+01  0.9120E+03  0.9066E+03
     13.927  0.0000E+00  0.1344E+02  0.9120E+03  0.9084E+03
     14.057  0.0000E+00  0.1365E+02  0.9120E+03  0.9102E+03
     14.187  0.0000E+00  0.1096E+02  0.9120E+03  0.9116E+03
     14.317  0.0000E+00  0.3862E+01  0.9120E+03  0.9121E+03
     14.447  0.0000E+00 -0.2505E+00  0.9120E+03  0.9120E+03
     14.577  0.0000E+00 -0.3311E+00  0.9120E+03  0.9120E+03
     14.708  0.0000E+00 -0.4713E-01  0.9120E+03  0.9120E+03
     14.838  0.0000E+00 -0.2324E-02  0.9120E+03  0.9120E+03
     14.968  0.0000E+00 -0.4528E-04  0.9120E+03  0.9120E+03
     15.098  0.0000E+00 -0.3630E-06  0.9120E+03  0.9120E+03
     15.228  0.0000E+00 -0.1218E-08  0.9120E+03  0.9120E+03
     15.358  0.0000E+00 -0.1727E-11  0.9120E+03  0.9120E+03
     15.488  0.0000E+00 -0.1706E-14  0.9120E+03  0.9120E+03
     15.619  0.0000E+00  0.0000E+00  0.9120E+03  0.9120E+03
     15.749  0.0000E+00  0.0000E+00  0.9120E+03  0.9120E+03
     15.879  0.0000E+00  0.0000E+00  0.9120E+03  0.9120E+03
     16.009  0.0000E+00  0.0000E+00  0.9120E+03  0.9120E+03
     16.139  0.0000E+00  0.0000E+00  0.9120E+03  0.9120E+03
