  274  274    1    2
  0.1007972E+02  0.1022390E-08  0.1022390E-08  0.2642200E-08  0.1000000E-15
  1.000000000000000E-004
  CAR 
 bader                                   
   1264      1    912
 
  0.0000000E+00  0.0000000E+00  0.0000000E+00  0.1000000E+01
    1      -20.904166    -20.904185   1.000000   1.000000
    2      -20.549338    -20.549320   1.000000   1.000000
    3      -20.474833    -20.474853   1.000000   1.000000
    4      -20.375198    -20.375219   1.000000   1.000000
    5      -20.320578    -20.320597   1.000000   1.000000
    6      -20.304226    -20.304214   1.000000   1.000000
    7      -20.287988    -20.287970   1.000000   1.000000
    8      -20.285534    -20.285551   1.000000   1.000000
    9      -20.246721    -20.246729   1.000000   1.000000
   10      -20.196632    -20.196652   1.000000   1.000000
   11      -20.128168    -20.128153   1.000000   1.000000
   12      -20.127143    -20.127160   1.000000   1.000000
   13      -20.082865    -20.082884   1.000000   1.000000
   14      -20.061783    -20.061801   1.000000   1.000000
   15      -20.054462    -20.054456   1.000000   1.000000
   16      -19.960563    -19.960581   1.000000   1.000000
   17      -19.939155    -19.939148   1.000000   1.000000
   18      -19.927596    -19.927583   1.000000   1.000000
   19      -19.926743    -19.926759   1.000000   1.000000
   20      -19.904684    -19.904679   1.000000   1.000000
   21      -19.850509    -19.850510   1.000000   1.000000
   22      -19.835620    -19.835631   1.000000   1.000000
   23      -19.825093    -19.825112   1.000000   1.000000
   24      -19.780382    -19.780392   1.000000   1.000000
   25      -19.774089    -19.774081   1.000000   1.000000
   26      -19.735234    -19.735244   1.000000   1.000000
   27      -19.712775    -19.712761   1.000000   1.000000
   28      -19.700995    -19.701004   1.000000   1.000000
   29      -19.670116    -19.670128   1.000000   1.000000
   30      -19.647016    -19.647005   1.000000   1.000000
   31      -19.640673    -19.640683   1.000000   1.000000
   32      -19.586601    -19.586605   1.000000   1.000000
   33      -19.576897    -19.576888   1.000000   1.000000
   34      -19.535480    -19.535477   1.000000   1.000000
   35      -19.534271    -19.534283   1.000000   1.000000
   36      -19.479624    -19.479638   1.000000   1.000000
   37      -19.449731    -19.449719   1.000000   1.000000
   38      -19.421746    -19.421757   1.000000   1.000000
   39      -19.389897    -19.389894   1.000000   1.000000
   40      -19.376240    -19.376256   1.000000   1.000000
   41      -19.361855    -19.361844   1.000000   1.000000
   42      -19.319563    -19.319570   1.000000   1.000000
   43      -19.295704    -19.295694   1.000000   1.000000
   44      -19.278613    -19.278621   1.000000   1.000000
   45      -19.244101    -19.244096   1.000000   1.000000
   46      -19.224290    -19.224290   1.000000   1.000000
   47      -19.223879    -19.223884   1.000000   1.000000
   48      -19.151473    -19.151462   1.000000   1.000000
   49      -19.093248    -19.093240   1.000000   1.000000
   50      -19.060675    -19.060674   1.000000   1.000000
   51      -19.047253    -19.047250   1.000000   1.000000
   52      -19.024060    -19.024067   1.000000   1.000000
   53      -18.999288    -18.999279   1.000000   1.000000
   54      -18.966715    -18.966706   1.000000   1.000000
   55      -18.923431    -18.923432   1.000000   1.000000
   56      -18.909272    -18.909269   1.000000   1.000000
   57      -18.840676    -18.840667   1.000000   1.000000
   58      -18.824057    -18.824058   1.000000   1.000000
   59      -18.785008    -18.785027   1.000000   1.000000
   60      -18.763581    -18.763587   1.000000   1.000000
   61      -18.741229    -18.741225   1.000000   1.000000
   62      -18.709391    -18.709380   1.000000   1.000000
   63      -18.634210    -18.634196   1.000000   1.000000
   64      -18.625805    -18.625806   1.000000   1.000000
   65      -18.601346    -18.601339   1.000000   1.000000
   66      -18.521580    -18.521571   1.000000   1.000000
   67      -18.478578    -18.478586   1.000000   1.000000
   68      -18.417798    -18.417778   1.000000   1.000000
   69      -18.022319    -18.022316   1.000000   1.000000
   70      -17.845794    -17.845786   1.000000   1.000000
   71       -8.378335     -8.378363   1.000000   1.000000
   72       -8.297970     -8.297997   1.000000   1.000000
   73       -8.291871     -8.291836   1.000000   1.000000
   74       -8.253475     -8.253505   1.000000   1.000000
   75       -8.205893     -8.205922   1.000000   1.000000
   76       -8.195314     -8.195346   1.000000   1.000000
   77       -8.146306     -8.146337   1.000000   1.000000
   78       -8.119280     -8.119310   1.000000   1.000000
   79       -8.053233     -8.053194   1.000000   1.000000
   80       -7.974349     -7.974357   1.000000   1.000000
   81       -7.970602     -7.970574   1.000000   1.000000
   82       -7.962264     -7.962292   1.000000   1.000000
   83       -7.942320     -7.942347   1.000000   1.000000
   84       -7.895002     -7.895029   1.000000   1.000000
   85       -7.831418     -7.831422   1.000000   1.000000
   86       -7.817611     -7.817589   1.000000   1.000000
   87       -7.813358     -7.813384   1.000000   1.000000
   88       -7.796333     -7.796300   1.000000   1.000000
   89       -7.757373     -7.757382   1.000000   1.000000
   90       -7.700907     -7.700938   1.000000   1.000000
   91       -7.681759     -7.681724   1.000000   1.000000
   92       -7.662966     -7.662940   1.000000   1.000000
   93       -7.627476     -7.627499   1.000000   1.000000
   94       -7.619560     -7.619551   1.000000   1.000000
   95       -7.609395     -7.609420   1.000000   1.000000
   96       -7.569271     -7.569294   1.000000   1.000000
   97       -7.562939     -7.562920   1.000000   1.000000
   98       -7.523903     -7.523930   1.000000   1.000000
   99       -7.504642     -7.504622   1.000000   1.000000
  100       -7.490811     -7.490793   1.000000   1.000000
  101       -7.447674     -7.447675   1.000000   1.000000
  102       -7.434850     -7.434873   1.000000   1.000000
  103       -7.423790     -7.423780   1.000000   1.000000
  104       -7.420287     -7.420272   1.000000   1.000000
  105       -7.411807     -7.411794   1.000000   1.000000
  106       -7.408300     -7.408325   1.000000   1.000000
  107       -7.390741     -7.390746   1.000000   1.000000
  108       -7.367074     -7.367049   1.000000   1.000000
  109       -7.332112     -7.332135   1.000000   1.000000
  110       -7.300867     -7.300861   1.000000   1.000000
  111       -7.296960     -7.296964   1.000000   1.000000
  112       -7.281584     -7.281569   1.000000   1.000000
  113       -7.261333     -7.261343   1.000000   1.000000
  114       -7.242484     -7.242461   1.000000   1.000000
  115       -7.226312     -7.226310   1.000000   1.000000
  116       -7.198056     -7.198083   1.000000   1.000000
  117       -7.188946     -7.188928   1.000000   1.000000
  118       -7.141658     -7.141659   1.000000   1.000000
  119       -7.134648     -7.134668   1.000000   1.000000
  120       -7.129458     -7.129457   1.000000   1.000000
  121       -7.108148     -7.108130   1.000000   1.000000
  122       -7.092372     -7.092375   1.000000   1.000000
  123       -7.081270     -7.081266   1.000000   1.000000
  124       -7.064050     -7.064046   1.000000   1.000000
  125       -7.047781     -7.047774   1.000000   1.000000
  126       -6.995124     -6.995131   1.000000   1.000000
  127       -6.977865     -6.977870   1.000000   1.000000
  128       -6.933532     -6.933547   1.000000   1.000000
  129       -6.922210     -6.922227   1.000000   1.000000
  130       -6.909297     -6.909302   1.000000   1.000000
  131       -6.884960     -6.884948   1.000000   1.000000
  132       -6.842854     -6.842882   1.000000   1.000000
  133       -6.772253     -6.772254   1.000000   1.000000
  134       -6.771469     -6.771474   1.000000   1.000000
  135       -6.691404     -6.691390   1.000000   1.000000
  136       -6.655131     -6.655140   1.000000   1.000000
  137       -6.595512     -6.595492   1.000000   1.000000
  138       -6.546862     -6.546867   1.000000   1.000000
  139       -6.499556     -6.499544   1.000000   1.000000
  140       -6.486979     -6.486965   1.000000   1.000000
  141       -6.381903     -6.381884   1.000000   1.000000
  142       -5.837254     -5.837275   1.000000   1.000000
  143       -5.784817     -5.784836   1.000000   1.000000
  144       -5.722364     -5.722384   1.000000   1.000000
  145       -5.684238     -5.684254   1.000000   1.000000
  146       -5.604496     -5.604515   1.000000   1.000000
  147       -5.573265     -5.573284   1.000000   1.000000
  148       -5.513405     -5.513424   1.000000   1.000000
  149       -5.482248     -5.482252   1.000000   1.000000
  150       -5.324403     -5.324425   1.000000   1.000000
  151       -5.297093     -5.297069   1.000000   1.000000
  152       -5.289638     -5.289653   1.000000   1.000000
  153       -5.255491     -5.255505   1.000000   1.000000
  154       -5.127951     -5.127937   1.000000   1.000000
  155       -5.082434     -5.082445   1.000000   1.000000
  156       -5.020591     -5.020586   1.000000   1.000000
  157       -5.002895     -5.002872   1.000000   1.000000
  158       -4.960225     -4.960248   1.000000   1.000000
  159       -4.877075     -4.877073   1.000000   1.000000
  160       -4.815550     -4.815571   1.000000   1.000000
  161       -4.773734     -4.773721   1.000000   1.000000
  162       -4.749114     -4.749107   1.000000   1.000000
  163       -4.724260     -4.724258   1.000000   1.000000
  164       -4.693305     -4.693284   1.000000   1.000000
  165       -4.648486     -4.648470   1.000000   1.000000
  166       -4.619950     -4.619949   1.000000   1.000000
  167       -4.612598     -4.612608   1.000000   1.000000
  168       -4.572049     -4.572051   1.000000   1.000000
  169       -4.529265     -4.529276   1.000000   1.000000
  170       -4.517744     -4.517756   1.000000   1.000000
  171       -4.503538     -4.503553   1.000000   1.000000
  172       -4.498510     -4.498518   1.000000   1.000000
  173       -4.476426     -4.476432   1.000000   1.000000
  174       -4.459564     -4.459571   1.000000   1.000000
  175       -4.444172     -4.444184   1.000000   1.000000
  176       -4.422916     -4.422931   1.000000   1.000000
  177       -4.374948     -4.374955   1.000000   1.000000
  178       -4.340576     -4.340574   1.000000   1.000000
  179       -4.320388     -4.320392   1.000000   1.000000
  180       -4.306354     -4.306360   1.000000   1.000000
  181       -4.265621     -4.265609   1.000000   1.000000
  182       -4.245978     -4.245983   1.000000   1.000000
  183       -4.203100     -4.203109   1.000000   1.000000
  184       -4.178414     -4.178416   1.000000   1.000000
  185       -4.167548     -4.167546   1.000000   1.000000
  186       -4.145282     -4.145287   1.000000   1.000000
  187       -4.121743     -4.121752   1.000000   1.000000
  188       -4.110549     -4.110551   1.000000   1.000000
  189       -4.081110     -4.081117   1.000000   1.000000
  190       -4.045700     -4.045688   1.000000   1.000000
  191       -3.993456     -3.993438   1.000000   1.000000
  192       -3.949703     -3.949691   1.000000   1.000000
  193       -3.916856     -3.916877   1.000000   1.000000
  194       -3.908464     -3.908460   1.000000   1.000000
  195       -3.879114     -3.879116   1.000000   1.000000
  196       -3.837492     -3.837486   1.000000   1.000000
  197       -3.821416     -3.821422   1.000000   1.000000
  198       -3.764446     -3.764431   1.000000   1.000000
  199       -3.738356     -3.738339   1.000000   1.000000
  200       -3.706451     -3.706470   1.000000   1.000000
  201       -3.636908     -3.636908   1.000000   1.000000
  202       -3.618475     -3.618490   1.000000   1.000000
  203       -3.576180     -3.576197   1.000000   1.000000
  204       -3.550113     -3.550115   1.000000   1.000000
  205       -3.514850     -3.514862   1.000000   1.000000
  206       -3.507951     -3.507948   1.000000   1.000000
  207       -3.487092     -3.487092   1.000000   1.000000
  208       -3.472300     -3.472308   1.000000   1.000000
  209       -3.463566     -3.463563   1.000000   1.000000
  210       -3.458190     -3.458194   1.000000   1.000000
  211       -3.437696     -3.437696   1.000000   1.000000
  212       -3.421868     -3.421875   1.000000   1.000000
  213       -3.398566     -3.398573   1.000000   1.000000
  214       -3.378029     -3.378025   1.000000   1.000000
  215       -3.375249     -3.375254   1.000000   1.000000
  216       -3.358767     -3.358774   1.000000   1.000000
  217       -3.350449     -3.350443   1.000000   1.000000
  218       -3.335882     -3.335886   1.000000   1.000000
  219       -3.304963     -3.304968   1.000000   1.000000
  220       -3.288406     -3.288408   1.000000   1.000000
  221       -3.279157     -3.279159   1.000000   1.000000
  222       -3.261798     -3.261809   1.000000   1.000000
  223       -3.244346     -3.244340   1.000000   1.000000
  224       -3.235070     -3.235077   1.000000   1.000000
  225       -3.231766     -3.231768   1.000000   1.000000
  226       -3.203117     -3.203125   1.000000   1.000000
  227       -3.179722     -3.179712   1.000000   1.000000
  228       -3.154334     -3.154329   1.000000   1.000000
  229       -3.116011     -3.116010   1.000000   1.000000
  230       -3.083068     -3.083071   1.000000   1.000000
  231       -3.069598     -3.069602   1.000000   1.000000
  232       -3.051880     -3.051874   1.000000   1.000000
  233       -3.031017     -3.031018   1.000000   1.000000
  234       -3.011345     -3.011344   1.000000   1.000000
  235       -2.999687     -2.999688   1.000000   1.000000
  236       -2.989634     -2.989636   1.000000   1.000000
  237       -2.982154     -2.982159   1.000000   1.000000
  238       -2.962931     -2.962937   1.000000   1.000000
  239       -2.953380     -2.953391   1.000000   1.000000
  240       -2.943558     -2.943567   1.000000   1.000000
  241       -2.927297     -2.927305   1.000000   1.000000
  242       -2.894071     -2.894071   1.000000   1.000000
  243       -2.872351     -2.872351   1.000000   1.000000
  244       -2.844102     -2.844102   1.000000   1.000000
  245       -2.841482     -2.841475   1.000000   1.000000
  246       -2.830439     -2.830441   1.000000   1.000000
  247       -2.812495     -2.812501   1.000000   1.000000
  248       -2.802757     -2.802759   1.000000   1.000000
  249       -2.779377     -2.779377   1.000000   1.000000
  250       -2.759543     -2.759547   1.000000   1.000000
  251       -2.737934     -2.737936   1.000000   1.000000
  252       -2.731230     -2.731235   1.000000   1.000000
  253       -2.724067     -2.724065   1.000000   1.000000
  254       -2.715952     -2.715957   1.000000   1.000000
  255       -2.705675     -2.705677   1.000000   1.000000
  256       -2.695531     -2.695537   1.000000   1.000000
  257       -2.689995     -2.690000   1.000000   1.000000
  258       -2.659390     -2.659395   1.000000   1.000000
  259       -2.638097     -2.638104   1.000000   1.000000
  260       -2.630123     -2.630131   1.000000   1.000000
  261       -2.628272     -2.628278   1.000000   1.000000
  262       -2.616264     -2.616272   1.000000   1.000000
  263       -2.606326     -2.606332   1.000000   1.000000
  264       -2.594703     -2.594708   1.000000   1.000000
  265       -2.592160     -2.592164   1.000000   1.000000
  266       -2.585981     -2.585981   1.000000   1.000000
  267       -2.577399     -2.577406   1.000000   1.000000
  268       -2.563417     -2.563423   1.000000   1.000000
  269       -2.548431     -2.548435   1.000000   1.000000
  270       -2.540108     -2.540113   1.000000   1.000000
  271       -2.531452     -2.531460   1.000000   1.000000
  272       -2.512253     -2.512261   1.000000   1.000000
  273       -2.504231     -2.504240   1.000000   1.000000
  274       -2.500766     -2.500769   1.000000   1.000000
  275       -2.493709     -2.493715   1.000000   1.000000
  276       -2.482504     -2.482502   1.000000   1.000000
  277       -2.470226     -2.470235   1.000000   1.000000
  278       -2.458403     -2.458407   1.000000   1.000000
  279       -2.445228     -2.445227   1.000000   1.000000
  280       -2.435636     -2.435649   1.000000   1.000000
  281       -2.431371     -2.431376   1.000000   1.000000
  282       -2.416572     -2.416574   1.000000   1.000000
  283       -2.394802     -2.394804   1.000000   1.000000
  284       -2.390905     -2.390911   1.000000   1.000000
  285       -2.371170     -2.371178   1.000000   1.000000
  286       -2.364863     -2.364870   1.000000   1.000000
  287       -2.347825     -2.347836   1.000000   1.000000
  288       -2.342086     -2.342093   1.000000   1.000000
  289       -2.333748     -2.333762   1.000000   1.000000
  290       -2.318379     -2.318390   1.000000   1.000000
  291       -2.310630     -2.310640   1.000000   1.000000
  292       -2.300459     -2.300468   1.000000   1.000000
  293       -2.296989     -2.296990   1.000000   1.000000
  294       -2.286083     -2.286094   1.000000   1.000000
  295       -2.274908     -2.274917   1.000000   1.000000
  296       -2.270357     -2.270356   1.000000   1.000000
  297       -2.253726     -2.253730   1.000000   1.000000
  298       -2.238867     -2.238880   1.000000   1.000000
  299       -2.235795     -2.235803   1.000000   1.000000
  300       -2.220420     -2.220426   1.000000   1.000000
  301       -2.209726     -2.209730   1.000000   1.000000
  302       -2.202883     -2.202889   1.000000   1.000000
  303       -2.198598     -2.198610   1.000000   1.000000
  304       -2.184749     -2.184760   1.000000   1.000000
  305       -2.160577     -2.160579   1.000000   1.000000
  306       -2.155946     -2.155951   1.000000   1.000000
  307       -2.145694     -2.145708   1.000000   1.000000
  308       -2.138023     -2.138028   1.000000   1.000000
  309       -2.126948     -2.126956   1.000000   1.000000
  310       -2.114954     -2.114949   1.000000   1.000000
  311       -2.105037     -2.105043   1.000000   1.000000
  312       -2.099188     -2.099192   1.000000   1.000000
  313       -2.092969     -2.092971   1.000000   1.000000
  314       -2.087723     -2.087724   1.000000   1.000000
  315       -2.078702     -2.078714   1.000000   1.000000
  316       -2.069402     -2.069402   1.000000   1.000000
  317       -2.067055     -2.067059   1.000000   1.000000
  318       -2.065211     -2.065214   1.000000   1.000000
  319       -2.058882     -2.058885   1.000000   1.000000
  320       -2.046811     -2.046814   1.000000   1.000000
  321       -2.041236     -2.041242   1.000000   1.000000
  322       -2.022621     -2.022627   1.000000   1.000000
  323       -2.016161     -2.016167   1.000000   1.000000
  324       -2.015160     -2.015151   1.000000   1.000000
  325       -2.010118     -2.010126   1.000000   1.000000
  326       -1.997700     -1.997710   1.000000   1.000000
  327       -1.981179     -1.981171   1.000000   1.000000
  328       -1.965140     -1.965146   1.000000   1.000000
  329       -1.959080     -1.959094   1.000000   1.000000
  330       -1.950329     -1.950319   1.000000   1.000000
  331       -1.942950     -1.942955   1.000000   1.000000
  332       -1.939738     -1.939741   1.000000   1.000000
  333       -1.926392     -1.926391   1.000000   1.000000
  334       -1.920193     -1.920190   1.000000   1.000000
  335       -1.915673     -1.915678   1.000000   1.000000
  336       -1.906881     -1.906877   1.000000   1.000000
  337       -1.897809     -1.897803   1.000000   1.000000
  338       -1.886865     -1.886861   1.000000   1.000000
  339       -1.871822     -1.871826   1.000000   1.000000
  340       -1.868974     -1.868975   1.000000   1.000000
  341       -1.865109     -1.865122   1.000000   1.000000
  342       -1.852694     -1.852700   1.000000   1.000000
  343       -1.845034     -1.845036   1.000000   1.000000
  344       -1.838084     -1.838087   1.000000   1.000000
  345       -1.829236     -1.829241   1.000000   1.000000
  346       -1.820613     -1.820618   1.000000   1.000000
  347       -1.816384     -1.816384   1.000000   1.000000
  348       -1.813348     -1.813353   1.000000   1.000000
  349       -1.805307     -1.805307   1.000000   1.000000
  350       -1.796677     -1.796680   1.000000   1.000000
  351       -1.791717     -1.791712   1.000000   1.000000
  352       -1.777395     -1.777395   1.000000   1.000000
  353       -1.773024     -1.773027   1.000000   1.000000
  354       -1.766853     -1.766852   1.000000   1.000000
  355       -1.762842     -1.762843   1.000000   1.000000
  356       -1.756237     -1.756246   1.000000   1.000000
  357       -1.753005     -1.752999   1.000000   1.000000
  358       -1.739874     -1.739879   1.000000   1.000000
  359       -1.732625     -1.732627   1.000000   1.000000
  360       -1.720214     -1.720221   1.000000   1.000000
  361       -1.712070     -1.712077   1.000000   1.000000
  362       -1.705130     -1.705140   1.000000   1.000000
  363       -1.691610     -1.691616   1.000000   1.000000
  364       -1.688402     -1.688402   1.000000   1.000000
  365       -1.675465     -1.675466   1.000000   1.000000
  366       -1.671433     -1.671441   1.000000   1.000000
  367       -1.669428     -1.669432   1.000000   1.000000
  368       -1.666473     -1.666478   1.000000   1.000000
  369       -1.647571     -1.647572   1.000000   1.000000
  370       -1.641709     -1.641702   1.000000   1.000000
  371       -1.638808     -1.638804   1.000000   1.000000
  372       -1.631444     -1.631443   1.000000   1.000000
  373       -1.622755     -1.622747   1.000000   1.000000
  374       -1.617412     -1.617414   1.000000   1.000000
  375       -1.609475     -1.609475   1.000000   1.000000
  376       -1.601796     -1.601802   1.000000   1.000000
  377       -1.580437     -1.580431   1.000000   1.000000
  378       -1.571745     -1.571740   1.000000   1.000000
  379       -1.570488     -1.570490   1.000000   1.000000
  380       -1.555191     -1.555193   1.000000   1.000000
  381       -1.553891     -1.553889   1.000000   1.000000
  382       -1.538596     -1.538605   1.000000   1.000000
  383       -1.530326     -1.530330   1.000000   1.000000
  384       -1.521701     -1.521705   1.000000   1.000000
  385       -1.519448     -1.519452   1.000000   1.000000
  386       -1.512713     -1.512710   1.000000   1.000000
  387       -1.503635     -1.503634   1.000000   1.000000
  388       -1.502006     -1.502005   1.000000   1.000000
  389       -1.482662     -1.482665   1.000000   1.000000
  390       -1.478859     -1.478862   1.000000   1.000000
  391       -1.466325     -1.466327   1.000000   1.000000
  392       -1.462150     -1.462143   1.000000   1.000000
  393       -1.453764     -1.453766   1.000000   1.000000
  394       -1.446519     -1.446523   1.000000   1.000000
  395       -1.439432     -1.439435   1.000000   1.000000
  396       -1.428894     -1.428898   1.000000   1.000000
  397       -1.424995     -1.424990   1.000000   1.000000
  398       -1.419504     -1.419509   1.000000   1.000000
  399       -1.407298     -1.407301   1.000000   1.000000
  400       -1.400592     -1.400591   1.000000   1.000000
  401       -1.396230     -1.396232   1.000000   1.000000
  402       -1.384090     -1.384092   1.000000   1.000000
  403       -1.375292     -1.375282   1.000000   1.000000
  404       -1.371198     -1.371202   1.000000   1.000000
  405       -1.360073     -1.360074   1.000000   1.000000
  406       -1.357849     -1.357845   1.000000   1.000000
  407       -1.355757     -1.355760   1.000000   1.000000
  408       -1.354785     -1.354788   1.000000   1.000000
  409       -1.348450     -1.348451   1.000000   1.000000
  410       -1.339834     -1.339845   1.000000   1.000000
  411       -1.330121     -1.330124   1.000000   1.000000
  412       -1.324615     -1.324619   1.000000   1.000000
  413       -1.314590     -1.314593   1.000000   1.000000
  414       -1.309613     -1.309612   1.000000   1.000000
  415       -1.308222     -1.308217   1.000000   1.000000
  416       -1.302305     -1.302308   1.000000   1.000000
  417       -1.288376     -1.288379   1.000000   1.000000
  418       -1.284652     -1.284655   1.000000   1.000000
  419       -1.273516     -1.273521   1.000000   1.000000
  420       -1.266691     -1.266694   1.000000   1.000000
  421       -1.260795     -1.260796   1.000000   1.000000
  422       -1.255818     -1.255819   1.000000   1.000000
  423       -1.254866     -1.254870   1.000000   1.000000
  424       -1.248623     -1.248623   1.000000   1.000000
  425       -1.239264     -1.239269   1.000000   1.000000
  426       -1.233960     -1.233962   1.000000   1.000000
  427       -1.225470     -1.225474   1.000000   1.000000
  428       -1.214350     -1.214344   1.000000   1.000000
  429       -1.211709     -1.211706   1.000000   1.000000
  430       -1.210362     -1.210364   1.000000   1.000000
  431       -1.206203     -1.206206   1.000000   1.000000
  432       -1.203685     -1.203677   1.000000   1.000000
  433       -1.197131     -1.197133   1.000000   1.000000
  434       -1.184237     -1.184240   1.000000   1.000000
  435       -1.175114     -1.175117   1.000000   1.000000
  436       -1.164008     -1.164010   1.000000   1.000000
  437       -1.159913     -1.159915   1.000000   1.000000
  438       -1.147480     -1.147483   1.000000   1.000000
  439       -1.144244     -1.144246   1.000000   1.000000
  440       -1.135335     -1.135337   1.000000   1.000000
  441       -1.131943     -1.131943   1.000000   1.000000
  442       -1.121698     -1.121702   1.000000   1.000000
  443       -1.111960     -1.111962   1.000000   1.000000
  444       -1.103715     -1.103719   1.000000   1.000000
  445       -1.089499     -1.089482   1.000000   1.000000
  446       -1.084324     -1.084330   1.000000   1.000000
  447       -1.081219     -1.081219   1.000000   1.000000
  448       -1.076671     -1.076680   1.000000   1.000000
  449       -1.064355     -1.064358   1.000000   1.000000
  450       -1.060020     -1.060022   1.000000   1.000000
  451       -1.057854     -1.057856   1.000000   1.000000
  452       -1.047513     -1.047517   1.000000   1.000000
  453       -1.033055     -1.033057   1.000000   1.000000
  454       -1.023254     -1.023257   1.000000   1.000000
  455       -1.018410     -1.018417   1.000000   1.000000
  456       -1.013841     -1.013861   1.000000   1.000000
  457       -1.008568     -1.008570   1.000000   1.000000
  458       -0.987327     -0.987326   1.000000   1.000000
  459       -0.979698     -0.979689   1.000000   1.000000
  460       -0.976371     -0.976365   1.000000   1.000000
  461       -0.965546     -0.965545   1.000000   1.000000
  462       -0.960412     -0.960388   1.000000   1.000000
  463       -0.952907     -0.952905   1.000000   1.000000
  464       -0.950167     -0.950170   1.000000   1.000000
  465       -0.940955     -0.940955   1.000000   1.000000
  466       -0.940489     -0.940472   1.000000   1.000000
  467       -0.919166     -0.919171   1.000000   1.000000
  468       -0.903606     -0.903609   1.000000   1.000000
  469       -0.897705     -0.897708   1.000000   1.000000
  470       -0.892921     -0.892924   1.000000   1.000000
  471       -0.890394     -0.890395   1.000000   1.000000
  472       -0.870137     -0.870139   1.000000   1.000000
  473       -0.863158     -0.863160   1.000000   1.000000
  474       -0.854510     -0.854516   1.000000   1.000000
  475       -0.846811     -0.846808   1.000000   1.000000
  476       -0.836075     -0.836076   1.000000   1.000000
  477       -0.830640     -0.830643   1.000000   1.000000
  478       -0.823756     -0.823757   1.000000   1.000000
  479       -0.811303     -0.811305   1.000000   1.000000
  480       -0.803982     -0.803985   1.000000   1.000000
  481       -0.802059     -0.802063   1.000000   1.000000
  482       -0.796527     -0.796531   1.000000   1.000000
  483       -0.790547     -0.790547   1.000000   1.000000
  484       -0.776517     -0.776518   1.000000   1.000000
  485       -0.772718     -0.772722   1.000000   1.000000
  486       -0.769848     -0.769853   1.000000   1.000000
  487       -0.758747     -0.758750   1.000000   1.000000
  488       -0.753554     -0.753556   1.000000   1.000000
  489       -0.741359     -0.741361   1.000000   1.000000
  490       -0.740484     -0.740485   1.000000   1.000000
  491       -0.725433     -0.725435   1.000000   1.000000
  492       -0.724876     -0.724878   1.000000   1.000000
  493       -0.714483     -0.714485   1.000000   1.000000
  494       -0.713040     -0.713044   1.000000   1.000000
  495       -0.706959     -0.706960   1.000000   1.000000
  496       -0.696830     -0.696832   1.000000   1.000000
  497       -0.695243     -0.695244   1.000000   1.000000
  498       -0.692432     -0.692436   1.000000   1.000000
  499       -0.681695     -0.681697   1.000000   1.000000
  500       -0.676625     -0.676627   1.000000   1.000000
  501       -0.671193     -0.671195   1.000000   1.000000
  502       -0.660238     -0.660237   1.000000   1.000000
  503       -0.652892     -0.652892   1.000000   1.000000
  504       -0.649881     -0.649881   1.000000   1.000000
  505       -0.647708     -0.647709   1.000000   1.000000
  506       -0.635597     -0.635602   1.000000   1.000000
  507       -0.631380     -0.631382   1.000000   1.000000
  508       -0.624417     -0.624418   1.000000   1.000000
  509       -0.615018     -0.615016   1.000000   1.000000
  510       -0.612139     -0.612142   1.000000   1.000000
  511       -0.604085     -0.604086   1.000000   1.000000
  512       -0.588354     -0.588356   1.000000   1.000000