       N       E                     dE             d eps       ncg     rms          rms(c)
RMM:   1     0.112098526434E+05    0.11210E+05   -0.45860E+05  1824   0.140E+03
RMM:   2     0.278119383415E+04   -0.84287E+04   -0.96806E+04  1824   0.300E+02
RMM:   3     0.778618612706E+03   -0.20026E+04   -0.18165E+04  1824   0.184E+02
RMM:   4    -0.271452061134E+03   -0.10501E+04   -0.68131E+03  1824   0.188E+02
RMM:   5    -0.747735586998E+03   -0.47628E+03   -0.35343E+03  1824   0.105E+02
RMM:   6    -0.953158379986E+03   -0.20542E+03   -0.13881E+03  1824   0.679E+01
RMM:   7    -0.105461131889E+04   -0.10145E+03   -0.76968E+02  1824   0.432E+01
RMM:   8    -0.109755159825E+04   -0.42940E+02   -0.30654E+02  1824   0.309E+01
RMM:   9    -0.114124185558E+04   -0.43690E+02   -0.38368E+02  4774   0.197E+01
RMM:  10    -0.114289234106E+04   -0.16505E+01   -0.13946E+01  6438   0.303E+00
RMM:  11    -0.114291823040E+04   -0.25889E-01   -0.65944E-01  6497   0.608E-01
RMM:  12    -0.114292547852E+04   -0.72481E-02   -0.83359E-02  6122   0.175E-01    0.137E+02
RMM:  13    -0.282342529991E+03    0.86058E+03   -0.19954E+03  4477   0.708E+01    0.742E+01
RMM:  14    -0.313277923429E+03   -0.30935E+02   -0.35183E+02  4847   0.388E+01    0.562E+01
RMM:  15    -0.284418286252E+03    0.28860E+02   -0.61760E+01  4721   0.124E+01    0.452E+01
RMM:  16    -0.312650116148E+03   -0.28232E+02   -0.28962E+01  4714   0.107E+01    0.413E+01
RMM:  17    -0.416166401217E+03   -0.10352E+03   -0.38503E+01  4660   0.100E+01    0.321E+01
RMM:  18    -0.567664430363E+03   -0.15150E+03   -0.43047E+01  4598   0.837E+00    0.273E+01
RMM:  19    -0.713768069517E+03   -0.14610E+03   -0.49219E+01  4598   0.101E+01    0.242E+01
RMM:  20    -0.951711141459E+03   -0.23794E+03   -0.13254E+02  4380   0.128E+01    0.160E+01
RMM:  21    -0.111356377311E+04   -0.16185E+03   -0.12005E+02  4412   0.117E+01    0.115E+01
RMM:  22    -0.120825875231E+04   -0.94695E+02   -0.10758E+02  4532   0.101E+01    0.720E+00
RMM:  23    -0.122517440209E+04   -0.16916E+02   -0.24880E+01  4450   0.617E+00    0.486E+00
RMM:  24    -0.122986954555E+04   -0.46951E+01   -0.83654E+00  4455   0.312E+00    0.423E+00
RMM:  25    -0.123238405453E+04   -0.25145E+01   -0.36544E+00  4636   0.214E+00    0.328E+00
RMM:  26    -0.123478775372E+04   -0.24037E+01   -0.33372E+00  4518   0.180E+00    0.271E+00
RMM:  27    -0.123580006344E+04   -0.10123E+01   -0.10303E+00  4311   0.112E+00    0.229E+00
RMM:  28    -0.123644842492E+04   -0.64836E+00   -0.46757E-01  4279   0.819E-01    0.187E+00
RMM:  29    -0.123695591297E+04   -0.50749E+00   -0.34380E-01  4318   0.752E-01    0.147E+00
RMM:  30    -0.123717122620E+04   -0.21531E+00   -0.14483E-01  4442   0.526E-01    0.106E+00
RMM:  31    -0.123726594900E+04   -0.94723E-01   -0.10101E-01  4416   0.422E-01    0.800E-01
RMM:  32    -0.123727944434E+04   -0.13495E-01   -0.32150E-02  4455   0.315E-01    0.445E-01
RMM:  33    -0.123728412671E+04   -0.46824E-02   -0.13959E-02  4668   0.166E-01    0.241E-01
RMM:  34    -0.123728506845E+04   -0.94174E-03   -0.40649E-03  4648   0.116E-01    0.194E-01
RMM:  35    -0.123728492687E+04    0.14158E-03   -0.20303E-03  4680   0.786E-02    0.969E-02
RMM:  36    -0.123728474585E+04    0.18101E-03   -0.11418E-03  4601   0.482E-02    0.615E-02
RMM:  37    -0.123728466059E+04    0.85262E-04   -0.36580E-04  4643   0.317E-02    0.398E-02
RMM:  38    -0.123728459783E+04    0.62766E-04   -0.15686E-04  4833   0.194E-02    0.227E-02
RMM:  39    -0.123728453885E+04    0.58971E-04   -0.75694E-05  4696   0.107E-02    0.144E-02
RMM:  40    -0.123728451270E+04    0.26157E-04   -0.30007E-05  4714   0.846E-03    0.114E-02
RMM:  41    -0.123728450004E+04    0.12657E-04   -0.15495E-05  4603   0.586E-03    0.718E-03
RMM:  42    -0.123728449525E+04    0.47894E-05   -0.62391E-06  3910   0.392E-03    0.477E-03
RMM:  43    -0.123728449373E+04    0.15152E-05   -0.33514E-06  3499   0.293E-03    0.380E-03
RMM:  44    -0.123728449315E+04    0.58056E-06   -0.19354E-06  3309   0.251E-03
   1 F= -.12747733E+04 E0= -.12748074E+04  d E =0.102137E+00  mag=    -0.0001
