 vasp.5.4.4.18Apr17-6-g9f103f2a35 (build Sep 10 2020 19:07:03) complex          
  
 executed on             LinuxIFC date 2026.03.04  00:41:06
 running on   48 total cores
 distrk:  each k-point on   48 cores,    1 groups
 distr:  one band on NCORES_PER_BAND=   1 cores,   48 groups


--------------------------------------------------------------------------------------------------------


 INCAR:
 POTCAR:    PAW_PBE Cu 22Jun2005                  
 POTCAR:    PAW_PBE Ag 02Apr2005                  
 POTCAR:    PAW_PBE O 08Apr2002                   
 POTCAR:    PAW_PBE H 15Jun2001                   

 ----------------------------------------------------------------------------- 
|                                                                             |
|           W    W    AA    RRRRR   N    N  II  N    N   GGGG   !!!           |
|           W    W   A  A   R    R  NN   N  II  NN   N  G    G  !!!           |
|           W    W  A    A  R    R  N N  N  II  N N  N  G       !!!           |
|           W WW W  AAAAAA  RRRRR   N  N N  II  N  N N  G  GGG   !            |
|           WW  WW  A    A  R   R   N   NN  II  N   NN  G    G                |
|           W    W  A    A  R    R  N    N  II  N    N   GGGG   !!!           |
|                                                                             |
|      For optimal performance we recommend to set                            |
|        NCORE= 4 - approx SQRT( number of cores)                             |
|      NCORE specifies how many cores store one orbital (NPAR=cpu/NCORE).     |
|      This setting can  greatly improve the performance of VASP for DFT.     |
|      The default,   NCORE=1            might be grossly inefficient         |
|      on modern multi-core architectures or massively parallel machines.     |
|      Do your own testing !!!!                                               |
|      Unfortunately you need to use the default for GW and RPA calculations. |
|      (for HF NCORE is supported but not extensively tested yet)             |
|                                                                             |
 ----------------------------------------------------------------------------- 

 POTCAR:    PAW_PBE Cu 22Jun2005                  
   VRHFIN =Cu: d10 p1                                                           
   LEXCH  = PE                                                                  
   EATOM  =  1390.9808 eV,  102.2342 Ry                                         
                                                                                
   TITEL  = PAW_PBE Cu 22Jun2005                                                
   LULTRA =        F    use ultrasoft PP ?                                      
   IUNSCR =        1    unscreen: 0-lin 1-nonlin 2-no                           
   RPACOR =    2.000    partial core radius                                     
   POMASS =   63.546; ZVAL   =   11.000    mass and valenz                      
   RCORE  =    2.300    outmost cutoff radius                                   
   RWIGS  =    2.200; RWIGS  =    1.164    wigner-seitz radius (au A)           
   ENMAX  =  295.446; ENMIN  =  221.585 eV                                      
   ICORE  =        3    local potential                                         
   LCOR   =        T    correct aug charges                                     
   LPAW   =        T    paw PP                                                  
   EAUG   =  586.980                                                            
   DEXC   =    0.000                                                            
   RMAX   =    2.344    core radius for proj-oper                               
   RAUG   =    1.300    factor for augmentation sphere                          
   RDEP   =    2.302    radius for radial grids                                 
   RDEPT  =    1.771    core radius for aug-charge                              
                                                                                
   Atomic configuration                                                         
    9 entries                                                                   
     n  l   j            E        occ.                                          
     1  0  0.50     -8850.2468   2.0000                                         
     2  0  0.50     -1062.3498   2.0000                                         
     2  1  1.50      -916.8226   6.0000                                         
     3  0  0.50      -114.6929   2.0000                                         
     3  1  1.50       -72.1325   6.0000                                         
     3  2  2.50        -5.0394  10.0000                                         
     4  0  0.50        -4.6097   1.0000                                         
     4  1  0.50        -4.0817   0.0000                                         
     4  3  2.50        -1.3606   0.0000                                         
   Description                                                                  
     l       E           TYP  RCUT    TYP  RCUT                                 
     2     -5.0393973     23  2.200                                             
     2     10.8846608     23  2.200                                             
     0     -4.6097109     23  2.200                                             
     0      8.2520465     23  2.200                                             
     1     -2.7211652     23  2.200                                             
     1     21.7055443     23  2.200                                             
     3      2.7211652     23  2.300                                             
  local pseudopotential read in
  partial core-charges read in
  partial kinetic energy density read in
  atomic valenz-charges read in
  non local Contribution for L=           2  read in
    real space projection operators read in
  non local Contribution for L=           2  read in
    real space projection operators read in
  non local Contribution for L=           0  read in
    real space projection operators read in
  non local Contribution for L=           0  read in
    real space projection operators read in
  non local Contribution for L=           1  read in
    real space projection operators read in
  non local Contribution for L=           1  read in
    real space projection operators read in
    PAW grid and wavefunctions read in
 
   number of l-projection  operators is LMAX  =           6
   number of lm-projection operators is LMMAX =          18
 
 POTCAR:    PAW_PBE Ag 02Apr2005                  
   VRHFIN =Ag : s1 d10                                                          
   LEXCH  = PE                                                                  
   EATOM  =  1037.2675 eV,   76.2370 Ry                                         
                                                                                
   TITEL  = PAW_PBE Ag 02Apr2005                                                
   LULTRA =        F    use ultrasoft PP ?                                      
   IUNSCR =        1    unscreen: 0-lin 1-nonlin 2-no                           
   RPACOR =    2.000    partial core radius                                     
   POMASS =  107.868; ZVAL   =   11.000    mass and valenz                      
   RCORE  =    2.500    outmost cutoff radius                                   
   RWIGS  =    2.840; RWIGS  =    1.503    wigner-seitz radius (au A)           
   ENMAX  =  249.844; ENMIN  =  187.383 eV                                      
   ICORE  =        3    local potential                                         
   LCOR   =        T    correct aug charges                                     
   LPAW   =        T    paw PP                                                  
   EAUG   =  412.496                                                            
   DEXC   =    0.000                                                            
   RMAX   =    2.560    core radius for proj-oper                               
   RAUG   =    1.300    factor for augmentation sphere                          
   RDEP   =    2.576    radius for radial grids                                 
   RDEPT  =    2.072    core radius for aug-charge                              
                                                                                
   Atomic configuration                                                         
   12 entries                                                                   
     n  l   j            E        occ.                                          
     1  0  0.50    -25324.9161   2.0000                                         
     2  0  0.50     -3728.5341   2.0000                                         
     2  1  1.50     -3344.0404   6.0000                                         
     3  0  0.50      -683.5581   2.0000                                         
     3  1  1.50      -557.3225   6.0000                                         
     3  2  2.50      -358.3853  10.0000                                         
     4  0  0.50       -95.0341   2.0000                                         
     4  1  1.50       -58.5511   6.0000                                         
     4  2  2.50        -7.4440  10.0000                                         
     5  0  0.50        -4.4045   1.0000                                         
     5  1  0.50        -1.3606   0.0000                                         
     4  3  2.50        -1.3606   0.0000                                         
   Description                                                                  
     l       E           TYP  RCUT    TYP  RCUT                                 
     2     -7.4439781     23  2.400                                             
     2     -8.8045607     23  2.400                                             
     0     -4.4044681     23  2.400                                             
     0      1.9520038     23  2.400                                             
     1     -1.3605826     23  2.500                                             
     1     27.2116520     23  2.500                                             
     3     -4.0817478     23  2.400                                             
  local pseudopotential read in
  partial core-charges read in
  partial kinetic energy density read in
  atomic valenz-charges read in
  non local Contribution for L=           2  read in
    real space projection operators read in
  non local Contribution for L=           2  read in
    real space projection operators read in
  non local Contribution for L=           0  read in
    real space projection operators read in
  non local Contribution for L=           0  read in
    real space projection operators read in
  non local Contribution for L=           1  read in
    real space projection operators read in
  non local Contribution for L=           1  read in
    real space projection operators read in
    PAW grid and wavefunctions read in
 
   number of l-projection  operators is LMAX  =           6
   number of lm-projection operators is LMMAX =          18
 
 POTCAR:    PAW_PBE O 08Apr2002                   
   VRHFIN =O: s2p4                                                              
   LEXCH  = PE                                                                  
   EATOM  =   432.3788 eV,   31.7789 Ry                                         
                                                                                
   TITEL  = PAW_PBE O 08Apr2002                                                 
   LULTRA =        F    use ultrasoft PP ?                                      
   IUNSCR =        1    unscreen: 0-lin 1-nonlin 2-no                           
   RPACOR =    1.200    partial core radius                                     
   POMASS =   16.000; ZVAL   =    6.000    mass and valenz                      
   RCORE  =    1.520    outmost cutoff radius                                   
   RWIGS  =    1.550; RWIGS  =    0.820    wigner-seitz radius (au A)           
   ENMAX  =  400.000; ENMIN  =  300.000 eV                                      
   ICORE  =        2    local potential                                         
   LCOR   =        T    correct aug charges                                     
   LPAW   =        T    paw PP                                                  
   EAUG   =  605.392                                                            
   DEXC   =    0.000                                                            
   RMAX   =    1.553    core radius for proj-oper                               
   RAUG   =    1.300    factor for augmentation sphere                          
   RDEP   =    1.550    radius for radial grids                                 
   RDEPT  =    1.329    core radius for aug-charge                              
                                                                                
   Atomic configuration                                                         
    4 entries                                                                   
     n  l   j            E        occ.                                          
     1  0  0.50      -514.6923   2.0000                                         
     2  0  0.50       -23.9615   2.0000                                         
     2  1  0.50        -9.0305   4.0000                                         
     3  2  1.50        -9.5241   0.0000                                         
   Description                                                                  
     l       E           TYP  RCUT    TYP  RCUT                                 
     0    -23.9615318     23  1.200                                             
     0     -9.5240782     23  1.200                                             
     1     -9.0304911     23  1.520                                             
     1      8.1634956     23  1.520                                             
     2     -9.5240782      7  1.500                                             
  local pseudopotential read in
  partial core-charges read in
  partial kinetic energy density read in
  kinetic energy density of atom read in
  atomic valenz-charges read in
  non local Contribution for L=           0  read in
    real space projection operators read in
  non local Contribution for L=           0  read in
    real space projection operators read in
  non local Contribution for L=           1  read in
    real space projection operators read in
  non local Contribution for L=           1  read in
    real space projection operators read in
    PAW grid and wavefunctions read in
 
   number of l-projection  operators is LMAX  =           4
   number of lm-projection operators is LMMAX =           8
 
 POTCAR:    PAW_PBE H 15Jun2001                   
   VRHFIN =H: ultrasoft test                                                    
   LEXCH  = PE                                                                  
   EATOM  =    12.4884 eV,    0.9179 Ry                                         
                                                                                
   TITEL  = PAW_PBE H 15Jun2001                                                 
   LULTRA =        F    use ultrasoft PP ?                                      
   IUNSCR =        0    unscreen: 0-lin 1-nonlin 2-no                           
   RPACOR =    0.000    partial core radius                                     
   POMASS =    1.000; ZVAL   =    1.000    mass and valenz                      
   RCORE  =    1.100    outmost cutoff radius                                   
   RWIGS  =    0.700; RWIGS  =    0.370    wigner-seitz radius (au A)           
   ENMAX  =  250.000; ENMIN  =  200.000 eV                                      
   RCLOC  =    0.701    cutoff for local pot                                    
   LCOR   =        T    correct aug charges                                     
   LPAW   =        T    paw PP                                                  
   EAUG   =  400.000                                                            
   RMAX   =    1.123    core radius for proj-oper                               
   RAUG   =    1.200    factor for augmentation sphere                          
   RDEP   =    1.112    radius for radial grids                                 
   RDEPT  =    0.926    core radius for aug-charge                              
                                                                                
   Atomic configuration                                                         
    2 entries                                                                   
     n  l   j            E        occ.                                          
     1  0  0.50        -6.4927   1.0000                                         
     2  1  0.50        -3.4015   0.0000                                         
   Description                                                                  
     l       E           TYP  RCUT    TYP  RCUT                                 
     0     -6.4927494     23  1.100                                             
     0      6.8029130     23  1.100                                             
     1     -4.0817478     23  1.100                                             
  local pseudopotential read in
  atomic valenz-charges read in
  non local Contribution for L=           0  read in
    real space projection operators read in
  non local Contribution for L=           0  read in
    real space projection operators read in
  non local Contribution for L=           1  read in
    real space projection operators read in
    PAW grid and wavefunctions read in
 
   number of l-projection  operators is LMAX  =           3
   number of lm-projection operators is LMMAX =           5
 
 Optimization of the real space projectors (new method)

 maximal supplied QI-value         = 16.25
 optimisation between [QCUT,QGAM] = [ 10.73, 21.61] = [ 32.22,130.83] Ry 
 Optimized for a Real-space Cutoff    1.42 Angstroem

   l    n(q)    QCUT    max X(q) W(low)/X(q) W(high)/X(q)  e(spline) 
   2      8    10.726     4.610    0.15E-03    0.25E-03    0.14E-06
   2      8    10.726     8.522    0.25E-03    0.43E-03    0.27E-06
   0      9    10.726    51.609    0.94E-04    0.10E-03    0.12E-06
   0      9    10.726    27.747    0.85E-04    0.96E-04    0.11E-06
   1      9    10.726    20.408    0.25E-03    0.14E-03    0.12E-06
   1      9    10.726    13.425    0.22E-03    0.13E-03    0.11E-06
 Optimization of the real space projectors (new method)

 maximal supplied QI-value         = 15.12
 optimisation between [QCUT,QGAM] = [ 10.73, 21.62] = [ 32.26,130.87] Ry 
 Optimized for a Real-space Cutoff    1.42 Angstroem

   l    n(q)    QCUT    max X(q) W(low)/X(q) W(high)/X(q)  e(spline) 
   2      8    10.734    53.897    0.46E-03    0.48E-03    0.17E-06
   2      8    10.734    52.416    0.47E-03    0.50E-03    0.17E-06
   0      9    10.734   122.045    0.16E-03    0.13E-03    0.44E-07
   0      9    10.734    73.629    0.16E-03    0.13E-03    0.43E-07
   1      9    10.734    15.255    0.66E-04    0.32E-03    0.15E-06
   1      9    10.734     9.562    0.55E-04    0.26E-03    0.12E-06
 Optimization of the real space projectors (new method)

 maximal supplied QI-value         = 24.76
 optimisation between [QCUT,QGAM] = [ 10.64, 21.54] = [ 31.73,129.89] Ry 
 Optimized for a Real-space Cutoff    1.23 Angstroem

   l    n(q)    QCUT    max X(q) W(low)/X(q) W(high)/X(q)  e(spline) 
   0      8    10.645    20.381    0.38E-03    0.60E-03    0.15E-06
   0      8    10.645    15.268    0.40E-03    0.65E-03    0.17E-06
   1      7    10.645     5.964    0.30E-03    0.63E-03    0.18E-06
   1      7    10.645     5.382    0.24E-03    0.53E-03    0.16E-06
 Optimization of the real space projectors (new method)

 maximal supplied QI-value         = 34.20
 optimisation between [QCUT,QGAM] = [ 10.60, 21.55] = [ 31.48,130.03] Ry 
 Optimized for a Real-space Cutoff    1.23 Angstroem

   l    n(q)    QCUT    max X(q) W(low)/X(q) W(high)/X(q)  e(spline) 
   0      8    10.603    19.460    0.37E-03    0.59E-03    0.23E-06
   0      8    10.603    12.209    0.35E-03    0.56E-03    0.22E-06
   1      7    10.603     4.655    0.70E-04    0.28E-03    0.29E-06
  PAW_PBE Cu 22Jun2005                  :
 energy of atom  1       EATOM=-1390.9808
 kinetic energy error for atom=    0.0097 (will be added to EATOM!!)
  PAW_PBE Ag 02Apr2005                  :
 energy of atom  2       EATOM=-1037.2675
 kinetic energy error for atom=    0.0055 (will be added to EATOM!!)
  PAW_PBE O 08Apr2002                   :
 energy of atom  3       EATOM= -432.3788
 kinetic energy error for atom=    0.0389 (will be added to EATOM!!)
  PAW_PBE H 15Jun2001                   :
 energy of atom  4       EATOM=  -12.4884
 kinetic energy error for atom=    0.0045 (will be added to EATOM!!)
 
 
 POSCAR: Generated from /home/shaofl/projects/03_
  positions in direct lattice
  No initial velocities read in
 exchange correlation table for  LEXCH =        8
   RHO(1)=    0.500       N(1)  =     2000
   RHO(2)=  100.500       N(2)  =     4000
 


--------------------------------------------------------------------------------------------------------


 ion  position               nearest neighbor table
   1  0.951  0.007  0.975-  24 2.40  41 2.48  60 2.48  13 2.53   5 2.54  14 2.56  37 2.57   6 2.60
                            20 2.61  43 2.70  62 2.74
   2  0.192  0.245  0.979-  13 2.48   5 2.49   6 2.50  11 2.53  36 2.55  15 2.56   9 2.57  14 2.63
                            10 2.66  12 2.68  21 2.72  63 2.74
   3  0.944  0.013  0.119-  26 2.39  14 2.44   8 2.45  62 2.51   7 2.52  43 2.58  22 2.59  39 2.79

   4  0.203  0.240  0.119-   8 2.41  23 2.55  15 2.55   7 2.56  38 2.60  14 2.63  11 2.64  12 2.66

   5  0.199  0.002  0.980-  41 2.39   9 2.40   2 2.49  33 2.52   1 2.54  11 2.54  45 2.56  43 2.58
                            14 2.59  47 2.61  16 2.63  13 2.65
   6  0.948  0.261  0.981-  29 2.45  17 2.48  12 2.49   2 2.50  10 2.50  32 2.52  24 2.57  31 2.60
                             1 2.60  13 2.63  14 2.64  26 2.74
   7  0.189  0.990  0.123-  35 2.44  43 2.46  18 2.48   3 2.52   4 2.56  47 2.57  14 2.64
   8  0.968  0.251  0.119-  12 2.37   4 2.41   3 2.45  14 2.48  26 2.57  34 2.58  31 2.61
   9  0.328  0.109  0.916-   5 2.40  45 2.45  16 2.56  28 2.56  21 2.56   2 2.57  63 2.58  13 2.61

  10  0.060  0.386  0.912-  32 2.46  29 2.50   6 2.50  44 2.51  36 2.53  13 2.56   2 2.66  63 2.75

  11  0.333  0.131  0.044-  21 2.40  30 2.44  23 2.51  15 2.52   2 2.53   5 2.54  18 2.59  16 2.62
                             4 2.64  47 2.64  14 2.76
  12  0.061  0.374  0.052-   8 2.37  38 2.41   6 2.49  31 2.52  15 2.52  34 2.53  36 2.57  46 2.57
                            32 2.59  14 2.63   4 2.66   2 2.68
  13  0.075  0.136  0.909-  76 2.24   2 2.48   1 2.53  10 2.56   9 2.61   6 2.63   5 2.65  41 2.66
                            24 2.72
  14  0.065  0.117  0.050-  43 2.38   3 2.44   8 2.48  26 2.49   1 2.56   5 2.59   4 2.63  12 2.63
                             2 2.63   7 2.64   6 2.64  11 2.76
  15  0.308  0.375  0.049-  42 2.44  36 2.46  11 2.52  12 2.52   4 2.55   2 2.56  48 2.61  23 2.62
                            64 2.69  38 2.70  27 2.71  21 2.71
  16  0.454  0.973  0.981-  58 2.38  52 2.41  45 2.48  56 2.51  20 2.52  47 2.54   9 2.56  11 2.62
                             5 2.63  30 2.64  28 2.64  21 2.77
  17  0.706  0.243  0.984-  24 2.35   6 2.48  29 2.48  31 2.50  20 2.51  26 2.53  21 2.54  30 2.56
                            27 2.60  25 2.62  51 2.64  28 2.65
  18  0.431  0.001  0.119-  68 2.21   7 2.48  47 2.50  23 2.52  54 2.57  11 2.59  58 2.61  30 2.62
                            22 2.67
  19  0.694  0.264  0.126-  83 2.15  23 2.50  31 2.51  53 2.61  27 2.64  26 2.66  22 2.69  30 2.79

  20  0.698  0.999  0.990-  30 2.40  58 2.44  17 2.51  16 2.52  49 2.52  26 2.52  60 2.53  62 2.54
                            24 2.55   1 2.61  28 2.66
  21  0.458  0.245  0.981-  11 2.40  30 2.52  48 2.52  25 2.53  17 2.54  28 2.55  27 2.56   9 2.56
                            15 2.71   2 2.72  63 2.77  16 2.77
  22  0.692  0.003  0.112-  26 2.35  30 2.36  58 2.42  62 2.53  50 2.55   3 2.59  18 2.67  19 2.69

  23  0.452  0.246  0.114-  30 2.45  27 2.49  19 2.50  11 2.51  18 2.52   4 2.55  15 2.62  64 2.64

  24  0.809  0.126  0.919-  17 2.35  28 2.37   1 2.40  60 2.50  29 2.51  20 2.55   6 2.57  13 2.72

  25  0.580  0.369  0.913-  29 2.41  51 2.47  21 2.53  48 2.54  59 2.56  28 2.60  17 2.62  63 2.63

  26  0.821  0.127  0.056-  22 2.35   3 2.39  31 2.46  14 2.49  20 2.52  17 2.53  30 2.56   8 2.57
                            62 2.61  19 2.66   6 2.74
  27  0.573  0.378  0.050-  31 2.48  23 2.49  51 2.53  21 2.56  48 2.56  17 2.60  61 2.61  19 2.64
                            30 2.64  64 2.70  53 2.71  15 2.71
  28  0.578  0.115  0.913-  24 2.37  56 2.50  21 2.55   9 2.56  25 2.60  16 2.64  17 2.65  20 2.66

  29  0.816  0.371  0.916-  25 2.41   6 2.45  17 2.48  10 2.50  51 2.50  24 2.51  32 2.59  55 2.75

  30  0.571  0.119  0.050-  22 2.36  20 2.40  11 2.44  23 2.45  58 2.49  21 2.52  26 2.56  17 2.56
                            18 2.62  16 2.64  27 2.64  19 2.79
  31  0.815  0.367  0.054-  34 2.45  26 2.46  27 2.48  17 2.50  19 2.51  12 2.52   6 2.60   8 2.61
                            57 2.62  53 2.63  51 2.72  32 2.78
  32  0.951  0.507  0.980-  36 2.43  10 2.46  55 2.47  44 2.48  57 2.49   6 2.52  46 2.53  37 2.54
                            29 2.59  12 2.59  51 2.70  31 2.78
  33  0.205  0.756  0.983-  47 2.46  41 2.46  42 2.48  40 2.48  52 2.49  45 2.49   5 2.52  46 2.57
                            43 2.61  37 2.62  36 2.68
  34  0.930  0.500  0.117-  53 2.36  38 2.37  31 2.45  39 2.46  57 2.48  12 2.53   8 2.58  46 2.65

  35  0.199  0.752  0.117-  47 2.43   7 2.44  43 2.53  54 2.53  46 2.54  42 2.63  39 2.65  38 2.70

  36  0.188  0.494  0.982-  32 2.43  42 2.45  15 2.46  46 2.50  10 2.53   2 2.55  12 2.57  48 2.64
                            40 2.64  33 2.68  44 2.75  63 2.92
  37  0.949  0.756  0.980-  55 2.36  44 2.49  41 2.53  62 2.53  32 2.54  60 2.56  57 2.57   1 2.57
                            49 2.60  46 2.61  33 2.62  43 2.64
  38  0.162  0.491  0.121-  34 2.37  12 2.41  46 2.50   4 2.60  15 2.70  35 2.70  64 2.81
  39  0.941  0.740  0.122-  34 2.46  50 2.50  62 2.52  57 2.61  35 2.65  46 2.65  43 2.74   3 2.79

  40  0.318  0.634  0.915-  52 2.38  45 2.41  33 2.48  48 2.59  59 2.62  36 2.64  44 2.73  63 2.84

  41  0.088  0.877  0.916-   5 2.39  45 2.41  33 2.46   1 2.48  37 2.53  44 2.55  13 2.66
  42  0.316  0.614  0.046-  15 2.44  36 2.45  46 2.46  33 2.48  48 2.55  52 2.58  54 2.62  64 2.63
                            35 2.63  47 2.66  61 2.69
  43  0.075  0.885  0.052-  14 2.38  62 2.43   7 2.46  47 2.48  35 2.53   5 2.58   3 2.58  33 2.61
                            37 2.64  46 2.65   1 2.70  39 2.74
  44  0.052  0.631  0.910-  55 2.34  32 2.48  37 2.49  10 2.51  41 2.55  40 2.73  36 2.75
  45  0.324  0.870  0.913-  86 2.25  40 2.41  41 2.41   9 2.45  16 2.48  33 2.49  52 2.52  56 2.53
                             5 2.56
  46  0.076  0.625  0.049-  42 2.46  36 2.50  38 2.50  32 2.53  35 2.54  33 2.57  12 2.57  57 2.57
                            37 2.61  39 2.65  34 2.65  43 2.65
  47  0.317  0.874  0.052-  54 2.43  35 2.43  33 2.46  43 2.48  18 2.50  16 2.54  58 2.56   7 2.57
                             5 2.61  11 2.64  42 2.66  52 2.74
  48  0.446  0.491  0.978-  51 2.47  21 2.52  52 2.53  25 2.54  42 2.55  27 2.56  40 2.59  59 2.60
                            15 2.61  36 2.64  61 2.68  63 2.75
  49  0.695  0.754  0.978-  55 2.35  60 2.39  61 2.48  20 2.52  52 2.53  56 2.55  51 2.59  37 2.60
                            59 2.60  57 2.61  58 2.63  62 2.73
  50  0.698  0.754  0.114-  53 2.42  62 2.47  58 2.48  39 2.50  61 2.51  22 2.55  54 2.57  57 2.58

  51  0.687  0.501  0.979-  48 2.47  25 2.47  61 2.49  29 2.50  59 2.50  27 2.53  55 2.55  49 2.59
                            57 2.59  17 2.64  32 2.70  31 2.72
  52  0.448  0.738  0.978-  40 2.38  16 2.41  33 2.49  61 2.49  45 2.52  49 2.53  48 2.53  59 2.54
                            42 2.58  56 2.62  58 2.68  47 2.74
  53  0.700  0.518  0.121-  34 2.36  50 2.42  57 2.57  19 2.61  61 2.62  31 2.63  64 2.70  27 2.71

  54  0.447  0.751  0.112-  58 2.41  47 2.43  61 2.51  35 2.53  64 2.56  50 2.57  18 2.57  42 2.62

  55  0.825  0.640  0.920-  44 2.34  49 2.35  37 2.36  32 2.47  60 2.47  51 2.55  59 2.59  29 2.75

  56  0.571  0.871  0.908-  60 2.44  28 2.50  16 2.51  45 2.53  49 2.55  59 2.58  52 2.62
  57  0.824  0.623  0.047-  34 2.48  32 2.49  61 2.52  62 2.55  53 2.57  37 2.57  46 2.57  50 2.58
                            51 2.59  39 2.61  49 2.61  31 2.62
  58  0.567  0.876  0.051-  16 2.38  54 2.41  22 2.42  20 2.44  50 2.48  30 2.49  61 2.49  47 2.56
                            18 2.61  49 2.63  52 2.68  62 2.76
  59  0.574  0.619  0.909- 101 2.19  51 2.50  52 2.54  25 2.56  56 2.58  55 2.59  49 2.60  48 2.60
                            40 2.62
  60  0.808  0.881  0.917-  49 2.39  56 2.44  55 2.47   1 2.48  24 2.50  20 2.53  37 2.56
  61  0.578  0.633  0.046-  49 2.48  52 2.49  51 2.49  58 2.49  50 2.51  54 2.51  57 2.52  27 2.61
                            53 2.62  48 2.68  42 2.69  64 2.82
  62  0.837  0.872  0.053-  43 2.43  50 2.47   3 2.51  39 2.52  37 2.53  22 2.53  20 2.54  57 2.55
                            26 2.61  49 2.73   1 2.74  58 2.76
  63  0.325  0.359  0.901-   9 2.58  25 2.63   2 2.74  48 2.75  10 2.75  21 2.77  40 2.84  36 2.92

  64  0.436  0.503  0.122-  54 2.56  42 2.63  23 2.64  15 2.69  27 2.70  53 2.70  38 2.81  61 2.82

  65  0.571  0.787  0.251- 136 0.95 135 0.99
  66  0.813  0.669  0.226- 138 0.98 137 0.99
  67  0.082  0.175  0.626- 139 1.00 140 1.01
  68  0.416  0.024  0.202- 142 1.00 141 1.04  18 2.21
  69  0.081  0.113  0.233- 144 1.01 143 1.02
  70  0.714  0.294  0.460- 146 0.99 145 1.01
  71  0.100  0.531  0.652- 147 0.96 148 1.05
  72  0.790  0.123  0.777- 149 0.98 150 1.03
  73  0.668  0.392  0.791- 152 0.94 151 1.02
  74  0.182  0.830  0.514- 153 0.98 154 1.04
  75  0.717  0.229  0.648- 156 1.00 155 1.01
  76  0.055  0.153  0.825- 157 0.97 158 1.02  13 2.24
  77  0.592  0.479  0.683- 159 0.97 160 1.06
  78  0.749  0.396  0.333- 162 1.00 161 1.00
  79  0.677  0.588  0.588- 163 0.95 164 0.99
  80  0.930  0.430  0.415- 165 0.99 166 1.01
  81  0.383  0.825  0.629- 168 0.97 167 1.05
  82  0.440  0.524  0.346- 169 0.96 170 0.99
  83  0.709  0.312  0.205- 172 0.99 171 1.03  19 2.15
  84  0.464  0.098  0.530- 173 0.98 174 1.01
  85  0.202  0.861  0.416- 175 0.96 176 1.00
  86  0.327  0.867  0.828- 177 0.99 178 0.99  45 2.25
  87  0.927  0.711  0.788- 180 0.97 179 1.07
  88  0.321  0.316  0.489- 181 1.01 182 1.05
  89  0.857  0.663  0.454- 183 0.96 184 0.98
  90  0.355  0.408  0.586- 185 1.00 186 1.02
  91  0.295  0.550  0.803- 187 0.98 188 1.00
  92  0.893  0.405  0.704- 190 0.98 189 1.01
  93  0.589  0.935  0.479- 192 0.96 191 1.10
  94  0.292  0.282  0.675- 193 0.97 194 1.01
  95  0.979  0.589  0.292- 196 1.00 195 1.02
  96  0.806  0.992  0.521- 197 0.96 198 0.97
  97  0.818  0.972  0.348- 199 0.99 200 1.04
  98  0.934  0.763  0.537- 201 0.97 202 1.02
  99  0.376  0.807  0.336- 204 0.97 203 1.03
 100  0.219  0.305  0.316- 205 0.98 206 1.00
 101  0.544  0.652  0.828- 208 0.94 207 0.99  59 2.19
 102  0.661  0.861  0.612- 210 0.97 209 1.02
 103  0.500  0.115  0.694- 211 0.97 212 1.02
 104  0.059  0.087  0.371- 214 0.96 213 1.04
 105  0.229  0.283  0.778- 216 0.99 215 1.02
 106  0.678  0.681  0.349- 218 0.98 217 0.99
 107  0.975  0.774  0.381- 220 0.99 219 1.05
 108  0.096  0.258  0.452- 222 0.97 221 1.05
 109  0.627  0.289  0.557- 223 0.99 224 1.01
 110  0.900  0.480  0.569- 225 0.97 226 1.03
 111  0.555  0.850  0.743- 228 0.95 227 1.00
 112  0.691  0.921  0.827- 229 0.97 230 1.03
 113  0.363  0.293  0.224- 232 0.97 231 0.99
 114  0.936  0.229  0.544- 233 1.00 234 1.02
 115  0.503  0.234  0.347- 236 0.94 235 0.95
 116  0.549  0.502  0.254- 237 0.99 238 0.99
 117  0.753  0.672  0.715- 240 1.00 239 1.01
 118  0.768  0.996  0.681- 242 0.97 241 1.00
 119  0.570  0.995  0.381- 244 1.03 243 1.06
 120  0.161  0.678  0.229- 245 0.93 246 0.99
 121  0.322  0.628  0.698- 248 0.98 247 1.04
 122  0.554  0.657  0.502- 250 1.01 249 1.01
 123  0.670  0.088  0.258- 252 0.99 251 1.01
 124  0.247  0.008  0.580- 254 1.01 253 1.07
 125  0.949  0.753  0.638- 256 0.97 255 1.03
 126  0.101  0.922  0.782- 258 0.99 257 0.99
 127  0.343  0.647  0.554- 259 1.03 260 1.04
 128  0.235  0.901  0.260- 261 1.00 262 1.06
 129  0.499  0.441  0.441- 264 1.02 263 1.08
 130  0.873  0.957  0.235- 266 0.98 265 0.99
 131  0.968  0.379  0.235- 268 0.98 267 1.01
 132  0.043  0.953  0.682- 270 0.97 269 0.98
 133  0.923  0.453  0.807- 272 0.99 271 1.01
 134  0.444  0.131  0.805- 274 0.97 273 1.04
 135  0.522  0.792  0.219-  65 0.99
 136  0.512  0.789  0.279-  65 0.95
 137  0.733  0.716  0.236-  66 0.99
 138  0.801  0.638  0.191-  66 0.98
 139  0.051  0.104  0.649-  67 1.00
 140  0.149  0.123  0.606-  67 1.01
 141  0.332  0.980  0.215-  68 1.04
 142  0.387  0.116  0.207-  68 1.00
 143  0.061  0.207  0.243-  69 1.02
 144  0.099  0.128  0.196-  69 1.01
 145  0.701  0.305  0.498-  70 1.01
 146  0.800  0.329  0.449-  70 0.99
 147  0.092  0.488  0.620-  71 0.96
 148  0.029  0.602  0.645-  71 1.05
 149  0.754  0.072  0.749-  72 0.98
 150  0.736  0.208  0.774-  72 1.03
 151  0.765  0.411  0.797-  73 1.02
 152  0.655  0.413  0.757-  73 0.94
 153  0.229  0.750  0.524-  74 0.98
 154  0.208  0.847  0.476-  74 1.04
 155  0.679  0.265  0.616-  75 1.01
 156  0.772  0.292  0.667-  75 1.00
 157  0.965  0.174  0.817-  76 0.97
 158  0.107  0.222  0.805-  76 1.02
 159  0.505  0.504  0.694-  77 0.97
 160  0.598  0.497  0.643-  77 1.06
 161  0.726  0.489  0.326-  78 1.00
 162  0.807  0.371  0.304-  78 1.00
 163  0.712  0.666  0.601-  79 0.95
 164  0.757  0.534  0.588-  79 0.99
 165  0.886  0.394  0.385-  80 0.99
 166  0.015  0.380  0.418-  80 1.01
 167  0.335  0.896  0.607-  81 1.05
 168  0.476  0.835  0.627-  81 0.97
 169  0.495  0.507  0.318-  82 0.96
 170  0.415  0.616  0.342-  82 0.99
 171  0.690  0.226  0.224-  83 1.03
 172  0.802  0.322  0.214-  83 0.99
 173  0.409  0.141  0.504-  84 0.98
 174  0.514  0.027  0.512-  84 1.01
 175  0.271  0.838  0.393-  85 0.96
 176  0.173  0.943  0.399-  85 1.00
 177  0.378  0.942  0.814-  86 0.99
 178  0.234  0.889  0.822-  86 0.99
 179  0.856  0.700  0.759-  87 1.07
 180  0.885  0.720  0.821-  87 0.97
 181  0.381  0.359  0.464-  88 1.01
 182  0.331  0.357  0.526-  88 1.05
 183  0.881  0.577  0.443-  89 0.96
 184  0.909  0.715  0.430-  89 0.98
 185  0.340  0.503  0.580-  90 1.00
 186  0.326  0.372  0.620-  90 1.02
 187  0.225  0.594  0.822-  91 0.98
 188  0.296  0.599  0.770-  91 1.00
 189  0.978  0.436  0.689-  92 1.01
 190  0.917  0.389  0.739-  92 0.98
 191  0.690  0.960  0.489-  93 1.10
 192  0.571  0.844  0.485-  93 0.96
 193  0.209  0.253  0.662-  94 0.97
 194  0.357  0.209  0.674-  94 1.01
 195  0.988  0.646  0.323-  95 1.02
 196  0.906  0.630  0.272-  95 1.00
 197  0.847  0.076  0.521-  96 0.96
 198  0.877  0.929  0.521-  96 0.97
 199  0.800  0.986  0.311-  97 0.99
 200  0.726  0.996  0.363-  97 1.04
 201  0.026  0.769  0.529-  98 0.97
 202  0.894  0.715  0.507-  98 1.02
 203  0.311  0.848  0.310-  99 1.03
 204  0.432  0.876  0.349-  99 0.97
 205  0.267  0.300  0.284- 100 0.98
 206  0.280  0.345  0.341- 100 1.00
 207  0.454  0.623  0.821- 101 0.99
 208  0.598  0.579  0.821- 101 0.94
 209  0.710  0.903  0.641- 102 1.02
 210  0.670  0.922  0.584- 102 0.97
 211  0.502  0.137  0.729- 103 0.97
 212  0.584  0.152  0.679- 103 1.02
 213  0.967  0.065  0.356- 104 1.04
 214  0.096  0.156  0.351- 104 0.96
 215  0.250  0.378  0.787- 105 1.02
 216  0.258  0.275  0.743- 105 0.99
 217  0.730  0.761  0.344- 106 0.99
 218  0.670  0.673  0.386- 106 0.98
 219  0.923  0.852  0.365- 107 1.05
 220  0.058  0.804  0.397- 107 0.99
 221  0.098  0.195  0.420- 108 1.05
 222  0.181  0.277  0.466- 108 0.97
 223  0.576  0.213  0.545- 109 0.99
 224  0.554  0.356  0.560- 109 1.01
 225  0.938  0.525  0.540- 110 0.97
 226  0.910  0.382  0.561- 110 1.03
 227  0.492  0.913  0.729- 111 1.00
 228  0.499  0.796  0.763- 111 0.95
 229  0.657  0.887  0.796- 112 0.97
 230  0.727  0.013  0.819- 112 1.03
 231  0.313  0.344  0.199- 113 0.99
 232  0.436  0.350  0.232- 113 0.97
 233  0.991  0.237  0.512- 114 1.00
 234  0.998  0.189  0.570- 114 1.02
 235  0.567  0.302  0.347- 115 0.95
 236  0.517  0.188  0.316- 115 0.94
 237  0.625  0.472  0.234- 116 0.99
 238  0.521  0.578  0.233- 116 0.99
 239  0.695  0.599  0.703- 117 1.01
 240  0.694  0.749  0.722- 117 1.00
 241  0.865  0.990  0.686- 118 1.00
 242  0.762  0.080  0.665- 118 0.97
 243  0.551  0.097  0.381- 119 1.06
 244  0.573  0.968  0.418- 119 1.03
 245  0.133  0.652  0.197- 120 0.93
 246  0.101  0.637  0.254- 120 0.99
 247  0.345  0.706  0.675- 121 1.04
 248  0.255  0.581  0.679- 121 0.98
 249  0.621  0.626  0.527- 122 1.01
 250  0.543  0.584  0.477- 122 1.01
 251  0.585  0.057  0.243- 123 1.01
 252  0.733  0.030  0.241- 123 0.99
 253  0.223  0.942  0.550- 124 1.07
 254  0.322  0.056  0.562- 124 1.01
 255  0.863  0.726  0.656- 125 1.03
 256  0.915  0.776  0.605- 125 0.97
 257  0.074  0.003  0.800- 126 0.99
 258  0.027  0.861  0.787- 126 0.99
 259  0.424  0.641  0.531- 127 1.03
 260  0.354  0.706  0.586- 127 1.04
 261  0.159  0.962  0.265- 128 1.00
 262  0.198  0.817  0.242- 128 1.06
 263  0.587  0.384  0.443- 129 1.08
 264  0.488  0.468  0.404- 129 1.02
 265  0.894  0.864  0.228- 130 0.99
 266  0.952  0.009  0.228- 130 0.98
 267  0.997  0.441  0.262- 131 1.01
 268  0.022  0.385  0.204- 131 0.98
 269  0.073  0.944  0.717- 132 0.98
 270  0.018  0.868  0.669- 132 0.97
 271  0.937  0.548  0.797- 133 1.01
 272  0.956  0.448  0.842- 133 0.99
 273  0.491  0.150  0.839- 134 1.04
 274  0.385  0.204  0.800- 134 0.97
 

IMPORTANT INFORMATION: All symmetrisations will be switched off!
NOSYMM: (Re-)initialisation of all symmetry stuff for point group C_1.

 
 
 KPOINTS: K-Spacing Value to Generate K-Mesh: 0.00

Automatic generation of k-mesh.
Space group operators:
 irot       det(A)        alpha          n_x          n_y          n_z        tau_x        tau_y        tau_z
    1     1.000000     0.000000     1.000000     0.000000     0.000000     0.000000     0.000000     0.000000
 
 Subroutine IBZKPT returns following result:
 ===========================================
 
 Found      1 irreducible k-points:
 
 Following reciprocal coordinates:
            Coordinates               Weight
  0.000000  0.000000  0.000000      1.000000
 
 Following cartesian coordinates:
            Coordinates               Weight
  0.000000  0.000000  0.000000      1.000000
 


--------------------------------------------------------------------------------------------------------




 Dimension of arrays:
   k-points           NKPTS =      1   k-points in BZ     NKDIM =      1   number of bands    NBANDS=    912
   number of dos      NEDOS =    301   number of ions     NIONS =    274
   non local maximal  LDIM  =      6   non local SUM 2l+1 LMDIM =     18
   total plane-waves  NPLWV = 408240
   max r-space proj   IRMAX =   1831   max aug-charges    IRDMAX=   7466
   dimension x,y,z NGX =    54 NGY =   54 NGZ =  140
   dimension x,y,z NGXF=   108 NGYF=  108 NGZF=  280
   support grid    NGXF=   108 NGYF=  108 NGZF=  280
   ions per type =              62   2  70 140
   NGX,Y,Z   is equivalent  to a cutoff of   8.78,  8.78,  8.81 a.u.
   NGXF,Y,Z  is equivalent  to a cutoff of  17.56, 17.56, 17.62 a.u.

 SYSTEM =  bader                                   
 POSCAR =  Generated from /home/shaofl/projects/03_

 Startparameter for this run:
   NWRITE =      2    write-flag & timer
   PREC   = normal    normal or accurate (medium, high low for compatibility)
   ISTART =      0    job   : 0-new  1-cont  2-samecut
   ICHARG =      2    charge: 1-file 2-atom 10-const
   ISPIN  =      2    spin polarized calculation?
   LNONCOLLINEAR =      F non collinear calculations
   LSORBIT =      F    spin-orbit coupling
   INIWAV =      1    electr: 0-lowe 1-rand  2-diag
   LASPH  =      F    aspherical Exc in radial PAW
   METAGGA=      F    non-selfconsistent MetaGGA calc.

 Electronic Relaxation 1
   ENCUT  =  450.0 eV  33.07 Ry    5.75 a.u.  17.68 17.68 45.70*2*pi/ulx,y,z
   ENINI  =  450.0     initial cutoff
   ENAUG  =  605.4 eV  augmentation charge cutoff
   NELM   =    200;   NELMIN=  4; NELMDL=-12     # of ELM steps 
   EDIFF  = 0.1E-05   stopping-criterion for ELM
   LREAL  =      T    real-space projection
   NLSPLINE    = F    spline interpolate recip. space projectors
   LCOMPAT=      F    compatible to vasp.4.4
   GGA_COMPAT  = T    GGA compatible to vasp.4.4-vasp.4.6
   LMAXPAW     = -100 max onsite density
   LMAXMIX     =    2 max onsite mixed and CHGCAR
   VOSKOWN=      0    Vosko Wilk Nusair interpolation
   ROPT   =   -0.00050  -0.00050  -0.00050  -0.00050
 Ionic relaxation
   EDIFFG = -.1E-01   stopping-criterion for IOM
   NSW    =      0    number of steps for IOM
   NBLOCK =      1;   KBLOCK =      1    inner block; outer block 
   IBRION =     -1    ionic relax: 0-MD 1-quasi-New 2-CG
   NFREE  =      0    steps in history (QN), initial steepest desc. (CG)
   ISIF   =      2    stress and relaxation
   IWAVPR =     10    prediction:  0-non 1-charg 2-wave 3-comb
   ISYM   =      0    0-nonsym 1-usesym 2-fastsym
   LCORR  =      T    Harris-Foulkes like correction to forces

   POTIM  = 0.1000    time-step for ionic-motion
   TEIN   =    0.0    initial temperature
   TEBEG  =    0.0;   TEEND  =   0.0 temperature during run
   SMASS  =  -3.00    Nose mass-parameter (am)
   estimated Nose-frequenzy (Omega)   =  0.10E-29 period in steps =****** mass=  -0.239E-26a.u.
   SCALEE = 1.0000    scale energy and forces
   NPACO  =    256;   APACO  = 16.0  distance and # of slots for P.C.
   PSTRESS=    0.0 pullay stress

  Mass of Ions in am
   POMASS =  63.55107.87 16.00  1.00
  Ionic Valenz
   ZVAL   =  11.00 11.00  6.00  1.00
  Atomic Wigner-Seitz radii
   RWIGS  =  -1.00 -1.00 -1.00 -1.00
  virtual crystal weights 
   VCA    =   1.00  1.00  1.00  1.00
   NELECT =    1264.0000    total number of electrons
   NUPDOWN=      -1.0000    fix difference up-down

 DOS related values:
   EMIN   =  10.00;   EMAX   =-10.00  energy-range for DOS
   EFERMI =   0.00
   ISMEAR =     1;   SIGMA  =   0.20  broadening in eV -4-tet -1-fermi 0-gaus

 Electronic relaxation 2 (details)
   IALGO  =     48    algorithm
   LDIAG  =      T    sub-space diagonalisation (order eigenvalues)
   LSUBROT=      F    optimize rotation matrix (better conditioning)
   TURBO    =      0    0=normal 1=particle mesh
   IRESTART =      0    0=no restart 2=restart with 2 vectors
   NREBOOT  =      0    no. of reboots
   NMIN     =      0    reboot dimension
   EREF     =   0.00    reference energy to select bands
   IMIX   =      4    mixing-type and parameters
     AMIX     =   0.40;   BMIX     =  1.00
     AMIX_MAG =   1.60;   BMIX_MAG =  1.00
     AMIN     =   0.10
     WC   =   100.;   INIMIX=   1;  MIXPRE=   1;  MAXMIX= -45

 Intra band minimization:
   WEIMIN = 0.0000     energy-eigenvalue tresh-hold
   EBREAK =  0.27E-09  absolut break condition
   DEPER  =   0.30     relativ break condition  

   TIME   =   0.40     timestep for ELM

  volume/ion in A,a.u.               =      10.08        68.02
  Fermi-wavevector in a.u.,A,eV,Ry     =   1.261607  2.384092 21.655757  1.591653
  Thomas-Fermi vector in A             =   2.395058
 
 Write flags
   LWAVE        =      F    write WAVECAR
   LDOWNSAMPLE  =      F    k-point downsampling of WAVECAR
   LCHARG       =      T    write CHGCAR
   LVTOT        =      F    write LOCPOT, total local potential
   LVHAR        =      F    write LOCPOT, Hartree potential only
   LELF         =      F    write electronic localiz. function (ELF)
   LORBIT       =      0    0 simple, 1 ext, 2 COOP (PROOUT), +10 PAW based schemes


 Dipole corrections
   LMONO  =      F    monopole corrections only (constant potential shift)
   LDIPOL =      F    correct potential (dipole corrections)
   IDIPOL =      0    1-x, 2-y, 3-z, 4-all directions 
   EPSILON=  1.0000000 bulk dielectric constant

 Exchange correlation treatment:
   GGA     =    --    GGA type
   LEXCH   =     8    internal setting for exchange type
   VOSKOWN=      0    Vosko Wilk Nusair interpolation
   LHFCALC =     F    Hartree Fock is set to
   LHFONE  =     F    Hartree Fock one center treatment
   AEXX    =    0.0000 exact exchange contribution

 Linear response parameters
   LEPSILON=     F    determine dielectric tensor
   LRPA    =     F    only Hartree local field effects (RPA)
   LNABLA  =     F    use nabla operator in PAW spheres
   LVEL    =     F    velocity operator in full k-point grid
   LINTERFAST=   F  fast interpolation
   KINTER  =     0    interpolate to denser k-point grid
   CSHIFT  =0.1000    complex shift for real part using Kramers Kronig
   OMEGAMAX=  -1.0    maximum frequency
   DEG_THRESHOLD= 0.2000000E-02 threshold for treating states as degnerate
   RTIME   =   -0.100 relaxation time in fs
  (WPLASMAI=    0.000 imaginary part of plasma frequency in eV, 0.658/RTIME)
   DFIELD  = 0.0000000 0.0000000 0.0000000 field for delta impulse in time
 
 Orbital magnetization related:
   ORBITALMAG=     F  switch on orbital magnetization
   LCHIMAG   =     F  perturbation theory with respect to B field
   DQ        =  0.001000  dq finite difference perturbation B field
   LLRAUG    =     F  two centre corrections for induced B field



--------------------------------------------------------------------------------------------------------


 Static calculation
 charge density and potential will be updated during run
 spin polarized calculation
 RMM-DIIS sequential band-by-band
 perform sub-space diagonalisation
    before iterative eigenvector-optimisation
 modified Broyden-mixing scheme, WC =      100.0
 initial mixing is a Kerker type mixing with AMIX =  0.4000 and BMIX =      1.0000
 Hartree-type preconditioning will be used
 using additional bands          280
 real space projection scheme for non local part
 use partial core corrections
 calculate Harris-corrections to forces 
   (improved forces if not selfconsistent)
 use gradient corrections 
 use of overlap-Matrix (Vanderbilt PP)
 Methfessel and Paxton  Order N= 1 SIGMA  =   0.20


--------------------------------------------------------------------------------------------------------


  energy-cutoff  :      450.00
  volume of cell :     2761.84
      direct lattice vectors                 reciprocal lattice vectors
    10.223900000  0.000000000  0.000000000     0.097810033 -0.000000000 -0.000000000
     0.000000000 10.223900000  0.000000000     0.000000000  0.097810033 -0.000000000
     0.000000000  0.000000000 26.422000000     0.000000000  0.000000000  0.037847249

  length of vectors
    10.223900000 10.223900000 26.422000000     0.097810033  0.097810033  0.037847249


 
 k-points in units of 2pi/SCALE and weight: K-Spacing Value to Generate K-Mesh: 0.00
   0.00000000  0.00000000  0.00000000       1.000
 
 k-points in reciprocal lattice and weights: K-Spacing Value to Generate K-Mesh: 0.00
   0.00000000  0.00000000  0.00000000       1.000
 
 position of ions in fractional coordinates (direct lattice) 
   0.95064000  0.00704000  0.97497000
   0.19191000  0.24539000  0.97925000
   0.94389000  0.01256000  0.11889000
   0.20346000  0.24047000  0.11888000
   0.19870000  0.00212000  0.97988000
   0.94792000  0.26104000  0.98087000
   0.18916000  0.99037000  0.12253000
   0.96770000  0.25062000  0.11890000
   0.32766000  0.10941000  0.91639000
   0.05952000  0.38631000  0.91193000
   0.33322000  0.13068000  0.04385000
   0.06136000  0.37404000  0.05201000
   0.07454000  0.13621000  0.90893000
   0.06452000  0.11706000  0.05026000
   0.30801000  0.37538000  0.04860000
   0.45437000  0.97338000  0.98141000
   0.70650000  0.24343000  0.98402000
   0.43126000  0.00146000  0.11914000
   0.69368000  0.26357000  0.12608000
   0.69810000  0.99859000  0.98982000
   0.45825000  0.24454000  0.98070000
   0.69158000  0.00328000  0.11161000
   0.45214000  0.24642000  0.11364000
   0.80947000  0.12616000  0.91873000
   0.58025000  0.36935000  0.91258000
   0.82135000  0.12693000  0.05590000
   0.57326000  0.37776000  0.04973000
   0.57806000  0.11492000  0.91264000
   0.81606000  0.37135000  0.91644000
   0.57143000  0.11943000  0.05007000
   0.81511000  0.36750000  0.05373000
   0.95075000  0.50738000  0.98039000
   0.20544000  0.75615000  0.98309000
   0.93040000  0.50036000  0.11669000
   0.19948000  0.75234000  0.11667000
   0.18780000  0.49448000  0.98224000
   0.94885000  0.75599000  0.98008000
   0.16192000  0.49100000  0.12106000
   0.94134000  0.74031000  0.12241000
   0.31837000  0.63443000  0.91490000
   0.08832000  0.87738000  0.91646000
   0.31570000  0.61381000  0.04572000
   0.07469000  0.88457000  0.05169000
   0.05188000  0.63124000  0.90976000
   0.32360000  0.86979000  0.91332000
   0.07592000  0.62515000  0.04934000
   0.31699000  0.87353000  0.05180000
   0.44602000  0.49060000  0.97850000
   0.69461000  0.75385000  0.97839000
   0.69795000  0.75447000  0.11448000
   0.68724000  0.50073000  0.97939000
   0.44779000  0.73832000  0.97788000
   0.70048000  0.51842000  0.12122000
   0.44691000  0.75126000  0.11230000
   0.82494000  0.64038000  0.91967000
   0.57075000  0.87112000  0.90773000
   0.82430000  0.62318000  0.04708000
   0.56744000  0.87625000  0.05083000
   0.57361000  0.61930000  0.90920000
   0.80759000  0.88124000  0.91669000
   0.57826000  0.63325000  0.04623000
   0.83693000  0.87205000  0.05283000
   0.32549000  0.35874000  0.90086000
   0.43642000  0.50279000  0.12241000
   0.57073000  0.78731000  0.25095000
   0.81309000  0.66861000  0.22616000
   0.08206000  0.17507000  0.62562000
   0.41615000  0.02394000  0.20222000
   0.08104000  0.11290000  0.23274000
   0.71360000  0.29438000  0.45994000
   0.09986000  0.53055000  0.65186000
   0.79038000  0.12322000  0.77678000
   0.66809000  0.39157000  0.79121000
   0.18196000  0.83045000  0.51384000
   0.71666000  0.22883000  0.64800000
   0.05524000  0.15332000  0.82468000
   0.59227000  0.47896000  0.68262000
   0.74863000  0.39568000  0.33308000
   0.67651000  0.58781000  0.58817000
   0.92974000  0.42953000  0.41537000
   0.38257000  0.82501000  0.62887000
   0.43977000  0.52392000  0.34624000
   0.70850000  0.31158000  0.20525000
   0.46377000  0.09821000  0.52962000
   0.20172000  0.86121000  0.41614000
   0.32749000  0.86697000  0.82815000
   0.92686000  0.71054000  0.78843000
   0.32093000  0.31613000  0.48946000
   0.85665000  0.66339000  0.45400000
   0.35519000  0.40817000  0.58580000
   0.29496000  0.54976000  0.80315000
   0.89264000  0.40472000  0.70408000
   0.58860000  0.93510000  0.47903000
   0.29195000  0.28250000  0.67493000
   0.97873000  0.58933000  0.29187000
   0.80560000  0.99158000  0.52088000
   0.81750000  0.97241000  0.34809000
   0.93419000  0.76286000  0.53708000
   0.37596000  0.80703000  0.33566000
   0.21909000  0.30466000  0.31572000
   0.54371000  0.65161000  0.82805000
   0.66089000  0.86119000  0.61185000
   0.50022000  0.11494000  0.69361000
   0.05877000  0.08709000  0.37089000
   0.22881000  0.28318000  0.77806000
   0.67771000  0.68090000  0.34918000
   0.97514000  0.77427000  0.38147000
   0.09640000  0.25780000  0.45176000
   0.62658000  0.28910000  0.55651000
   0.90045000  0.48047000  0.56932000
   0.55527000  0.84968000  0.74346000
   0.69134000  0.92061000  0.82705000
   0.36296000  0.29285000  0.22400000
   0.93612000  0.22933000  0.54360000
   0.50265000  0.23419000  0.34661000
   0.54871000  0.50155000  0.25385000
   0.75273000  0.67215000  0.71549000
   0.76820000  0.99556000  0.68117000
   0.57022000  0.99541000  0.38053000
   0.16111000  0.67762000  0.22917000
   0.32164000  0.62800000  0.69825000
   0.55355000  0.65700000  0.50185000
   0.66975000  0.08801000  0.25820000
   0.24744000  0.00821000  0.57960000
   0.94870000  0.75280000  0.63778000
   0.10058000  0.92217000  0.78184000
   0.34331000  0.64681000  0.55427000
   0.23472000  0.90133000  0.26025000
   0.49854000  0.44079000  0.44093000
   0.87330000  0.95730000  0.23513000
   0.96800000  0.37861000  0.23481000
   0.04294000  0.95344000  0.68175000
   0.92330000  0.45326000  0.80694000
   0.44380000  0.13066000  0.80501000
   0.52202000  0.79155000  0.21877000
   0.51230000  0.78908000  0.27901000
   0.73271000  0.71582000  0.23619000
   0.80139000  0.63773000  0.19121000
   0.05058000  0.10393000  0.64854000
   0.14860000  0.12266000  0.60573000
   0.33171000  0.97961000  0.21539000
   0.38729000  0.11620000  0.20666000
   0.06089000  0.20666000  0.24317000
   0.09890000  0.12822000  0.19571000
   0.70102000  0.30456000  0.49766000
   0.79997000  0.32913000  0.44902000
   0.09237000  0.48765000  0.61977000
   0.02910000  0.60237000  0.64459000
   0.75435000  0.07197000  0.74852000
   0.73624000  0.20788000  0.77442000
   0.76476000  0.41135000  0.79747000
   0.65514000  0.41265000  0.75698000
   0.22862000  0.75042000  0.52356000
   0.20800000  0.84733000  0.47640000
   0.67935000  0.26528000  0.61562000
   0.77229000  0.29233000  0.66687000
   0.96463000  0.17398000  0.81742000
   0.10701000  0.22155000  0.80518000
   0.50505000  0.50371000  0.69375000
   0.59752000  0.49718000  0.64323000
   0.72569000  0.48882000  0.32593000
   0.80691000  0.37108000  0.30435000
   0.71246000  0.66604000  0.60125000
   0.75685000  0.53404000  0.58830000
   0.88639000  0.39392000  0.38499000
   0.01498000  0.37995000  0.41768000
   0.33544000  0.89618000  0.60683000
   0.47639000  0.83538000  0.62651000
   0.49538000  0.50665000  0.31797000
   0.41471000  0.61633000  0.34177000
   0.69049000  0.22574000  0.22418000
   0.80224000  0.32160000  0.21422000
   0.40860000  0.14073000  0.50440000
   0.51433000  0.02735000  0.51171000
   0.27085000  0.83753000  0.39308000
   0.17303000  0.94322000  0.39875000
   0.37808000  0.94156000  0.81444000
   0.23421000  0.88868000  0.82235000
   0.85596000  0.70043000  0.75892000
   0.88502000  0.71955000  0.82135000
   0.38146000  0.35944000  0.46429000
   0.33128000  0.35671000  0.52573000
   0.88079000  0.57671000  0.44339000
   0.90892000  0.71467000  0.42978000
   0.33994000  0.50309000  0.57957000
   0.32589000  0.37238000  0.61983000
   0.22531000  0.59410000  0.82218000
   0.29595000  0.59905000  0.77048000
   0.97775000  0.43589000  0.68917000
   0.91677000  0.38877000  0.73946000
   0.68998000  0.95994000  0.48934000
   0.57102000  0.84448000  0.48466000
   0.20853000  0.25261000  0.66203000
   0.35735000  0.20898000  0.67423000
   0.98846000  0.64638000  0.32343000
   0.90555000  0.62973000  0.27214000
   0.84685000  0.07562000  0.52094000
   0.87652000  0.92926000  0.52105000
   0.80038000  0.98551000  0.31139000
   0.72553000  0.99629000  0.36256000
   0.02616000  0.76891000  0.52879000
   0.89358000  0.71467000  0.50711000
   0.31117000  0.84801000  0.31014000
   0.43215000  0.87588000  0.34879000
   0.26731000  0.30048000  0.28353000
   0.28033000  0.34490000  0.34086000
   0.45372000  0.62291000  0.82060000
   0.59768000  0.57900000  0.82128000
   0.71001000  0.90293000  0.64119000
   0.66953000  0.92241000  0.58408000
   0.50249000  0.13735000  0.72938000
   0.58444000  0.15249000  0.67853000
   0.96744000  0.06514000  0.35591000
   0.09576000  0.15558000  0.35085000
   0.25034000  0.37817000  0.78680000
   0.25785000  0.27508000  0.74257000
   0.73002000  0.76125000  0.34425000
   0.66991000  0.67289000  0.38585000
   0.92274000  0.85243000  0.36542000
   0.05799000  0.80372000  0.39679000
   0.09773000  0.19482000  0.42028000
   0.18085000  0.27739000  0.46630000
   0.57558000  0.21269000  0.54471000
   0.55428000  0.35642000  0.56011000
   0.93760000  0.52484000  0.54042000
   0.90963000  0.38245000  0.56058000
   0.49156000  0.91252000  0.72854000
   0.49868000  0.79637000  0.76326000
   0.65670000  0.88694000  0.79557000
   0.72655000  0.01264000  0.81905000
   0.31307000  0.34444000  0.19880000
   0.43553000  0.35035000  0.23154000
   0.99066000  0.23704000  0.51227000
   0.99831000  0.18916000  0.56974000
   0.56670000  0.30180000  0.34739000
   0.51704000  0.18785000  0.31640000
   0.62528000  0.47197000  0.23401000
   0.52105000  0.57758000  0.23302000
   0.69529000  0.59928000  0.70275000
   0.69379000  0.74859000  0.72207000
   0.86530000  0.99014000  0.68624000
   0.76223000  0.08046000  0.66464000
   0.55057000  0.09683000  0.38107000
   0.57269000  0.96849000  0.41790000
   0.13337000  0.65231000  0.19704000
   0.10101000  0.63710000  0.25423000
   0.34456000  0.70610000  0.67450000
   0.25480000  0.58081000  0.67879000
   0.62101000  0.62629000  0.52735000
   0.54347000  0.58367000  0.47669000
   0.58472000  0.05666000  0.24259000
   0.73325000  0.02966000  0.24127000
   0.22252000  0.94243000  0.54986000
   0.32167000  0.05584000  0.56230000
   0.86328000  0.72596000  0.65582000
   0.91498000  0.77597000  0.60462000
   0.07365000  0.00327000  0.79972000
   0.02738000  0.86064000  0.78685000
   0.42405000  0.64140000  0.53113000
   0.35411000  0.70617000  0.58595000
   0.15911000  0.96217000  0.26530000
   0.19848000  0.81679000  0.24213000
   0.58714000  0.38426000  0.44298000
   0.48781000  0.46820000  0.40416000
   0.89379000  0.86446000  0.22754000
   0.95157000  0.00900000  0.22826000
   0.99680000  0.44080000  0.26248000
   0.02225000  0.38549000  0.20437000
   0.07318000  0.94402000  0.71690000
   0.01790000  0.86813000  0.66938000
   0.93732000  0.54775000  0.79733000
   0.95633000  0.44754000  0.84201000
   0.49076000  0.14956000  0.83913000
   0.38498000  0.20426000  0.80027000
 
 position of ions in cartesian coordinates  (Angst):
   9.71924830  0.07197626 25.76065734
   1.96206865  2.50884282 25.87374350
   9.65023697  0.12841218  3.14131158
   2.08015469  2.45854123  3.14104736
   2.03148893  0.02167467 25.89038936
   9.69143929  2.66884686 25.91654714
   1.93395292 10.12544384  3.23748766
   9.89366803  2.56231382  3.14157580
   3.34996307  1.11859690 24.21285658
   0.60852653  3.94959481 24.09501446
   3.40680796  1.33605925  1.15860470
   0.62733850  3.82414756  1.37420822
   0.76208951  1.39259742 24.01574846
   0.65964603  1.19680973  1.32796972
   3.14906344  3.83784758  1.28410920
   4.64543344  9.95173978 25.93081502
   7.22318535  2.48880398 25.99977644
   4.40915911  0.01492689  3.14791708
   7.09211495  2.69471332  3.33128576
   7.13730459 10.20948430 26.15302404
   4.68510217  2.50015251 25.91205540
   7.07064476  0.03353439  2.94895942
   4.62263415  2.51937344  3.00259608
   8.27594033  1.28984722 24.27468406
   5.93241797  3.77619746 24.11218876
   8.39740027  1.29771963  1.47698980
   5.86095291  3.86218046  1.31396606
   5.91002763  1.17493059 24.11377408
   8.34331583  3.79664526 24.21417768
   5.84224318  1.22104038  1.32294954
   8.33360313  3.75728325  1.41965406
   9.72037292  5.18740238 25.90386458
   2.10039802  7.73080198 25.97520398
   9.51231656  5.11563060  3.08318318
   2.03946357  7.69184893  3.08265474
   1.92004842  5.05551407 25.95274528
   9.70094752  7.72916616 25.89567376
   1.65545389  5.01993490  3.19864732
   9.62416603  7.56885541  3.23431702
   3.25498304  6.48634888 24.17348780
   0.90297485  8.97024538 24.21470612
   3.22768523  6.27553206  1.20801384
   0.76362309  9.04375522  1.36575318
   0.53041593  6.45373464 24.03767872
   3.30845404  8.89264598 24.13174104
   0.77619849  6.39147108  1.30366148
   3.24087406  8.93088337  1.36865960
   4.56006388  5.01584534 25.85392700
   7.10162318  7.70728702 25.85102058
   7.13577100  7.71362583  3.02479056
   7.02627304  5.11941345 25.87744258
   4.57816018  7.54850985 25.83754536
   7.16163747  5.30027424  3.20287484
   4.56916315  7.68080711  2.96719060
   8.43410407  6.54718108 24.29952074
   5.83529092  8.90624377 23.98404206
   8.42756077  6.37133000  1.24394776
   5.80144982  8.95869237  1.34303026
   5.86453128  6.33166127 24.02288240
   8.25671940  9.00970964 24.22078318
   5.91207241  6.47428467  1.22148906
   8.55668863  8.91575200  1.39587426
   3.32777721  3.66772189 23.80252292
   4.46191444  5.14047468  3.23431702
   5.83508645  8.04937871  6.63060090
   8.31295085  6.83580178  5.97559952
   0.83897323  1.78989817 16.53013164
   4.25467599  0.24476017  5.34305684
   0.82854486  1.15427831  6.14945628
   7.29577504  3.00971168 12.15253468
   1.02095865  5.42429014 17.22344492
   8.08076608  1.25978896 20.52408116
   6.83048535  4.00337252 20.90535062
   1.86034084  8.49043775 13.57668048
   7.32706017  2.33953504 17.12145600
   0.56476824  1.56752835 21.78969496
   6.05530925  4.89683914 18.03618564
   7.65391826  4.04539275  8.80063976
   6.91657059  6.00971066 15.54062774
   9.50556879  4.39147177 10.97490614
   3.91135742  8.43481974 16.61600314
   4.49616450  5.35650569  9.14835328
   7.24363315  3.18556276  5.42311550
   4.74153810  1.00408922 13.99361964
   2.06236511  8.80492492 10.99525108
   3.34822501  8.86381458 21.88137930
   9.47612395  7.26448991 20.83189746
   3.28115623  3.23208151 12.93251212
   8.75830394  6.78243302 11.99558800
   3.63142704  4.17308926 15.47800760
   3.01564154  5.62069126 21.22082930
   9.12626210  4.13781681 18.60320176
   6.01778754  9.56036889 12.65693066
   2.98486761  2.88825175 17.83300046
  10.00643765  6.02525099  7.71178914
   8.23637384 10.13781476 13.76269136
   8.35803825  9.94182260  9.19723398
   9.55106514  7.79940435 14.19072776
   3.84377744  8.25099402  8.86880852
   2.23995425  3.11481337  8.34195384
   5.55883667  6.66199548 21.87873710
   6.75687327  8.80472044 16.16630070
   5.11419926  1.17513507 18.32656342
   0.60085860  0.89039945  9.79965558
   2.33933056  2.89520400 20.55790132
   6.92883927  6.96145351  9.22603396
   9.96973385  7.91605905 10.07920034
   0.98558396  2.63572142 11.93640272
   6.40609126  2.95572949 14.70410722
   9.20611075  4.91227723 15.04257304
   5.67702495  8.68704335 19.64370012
   7.06819103  9.41222458 21.85231510
   3.71086674  2.99406912  5.91852800
   9.57079727  2.34464699 14.36299920
   5.13904334  2.39433514  9.15812942
   5.60995617  5.12779705  6.70722470
   7.69583625  6.87199439 18.90467678
   7.85399998 10.17850588 17.99787374
   5.82987226 10.17697230 10.05436366
   1.64717253  6.92791912  6.05512974
   3.28841520  6.42060920 18.44916150
   5.65943985  6.71710230 13.25988070
   6.84745703  0.89980544  6.82216040
   2.52980182  0.08393822 15.31419120
   9.69941393  7.69655192 16.85142316
   1.02831986  9.42817386 20.65777648
   3.50996711  6.61292076 14.64492194
   2.39975381  9.21510779  6.87632550
   5.09702311  4.50659288 11.65025246
   8.92853187  9.78733947  6.21260486
   9.89673520  3.87087078  6.20414982
   0.43901427  9.74787522 18.01319850
   9.43972687  4.63408491 21.32096868
   4.53736682  1.33585477 21.26997422
   5.33708028  8.09272805  5.78034094
   5.23770397  8.06747501  7.37200222
   7.49115377  7.31847210  6.24061218
   8.19333122  6.52008775  5.05215062
   0.51712486  1.06256993 17.13572388
   1.51927154  1.25406357 16.00459806
   3.39136987 10.01543468  5.69103458
   3.95961423  1.18801718  5.46037052
   0.62253327  2.11287117  6.42503774
   1.01114371  1.31090846  5.17104962
   7.16715838  3.11379098 13.14917252
   8.17881328  3.36499221 11.86400644
   0.94438164  4.98568484 16.37556294
   0.29751549  6.15857064 17.03135698
   7.71239897  0.73581408 19.77739544
   7.52724414  2.12534433 20.46172524
   7.81882976  4.20560126 21.07075234
   6.69808585  4.21889233 20.00092556
   2.33738802  7.67221904 13.83350232
   2.12657120  8.66301719 12.58744080
   6.94560646  2.71219619 16.26591164
   7.89581573  2.98875269 17.62003914
   9.86228066  1.77875412 21.59787124
   1.09405954  2.26510505 21.27446596
   5.16358069  5.14988067 18.33026250
   6.10898473  5.08311860 16.99542306
   7.41938199  4.99764680  8.61172246
   8.24976715  3.79388481  8.04153570
   7.28411979  6.80952636 15.88622750
   7.73795872  5.45997156 15.54406260
   9.06236272  4.02739869 10.17220578
   0.15315402  3.88457081 11.03594096
   3.42950502  9.16245470 16.03366226
   4.87056372  8.54084158 16.55364722
   5.06471558  5.17993894  8.40140334
   4.23995357  6.30129629  9.03024694
   7.05950071  2.30794319  5.92328396
   8.20202154  3.28800624  5.66012084
   4.17748554  1.43880945 13.32725680
   5.25845849  0.27962366 13.52040162
   2.76914332  8.56282297 10.38595976
   1.76904142  9.64338696 10.53577250
   3.86545211  9.62641528 21.51913368
   2.39453962  9.08577545 21.72813170
   8.75124944  7.16112628 20.05218424
   9.04835598  7.35660724 21.70170970
   3.90000889  3.67487862 12.26747038
   3.38697359  3.64696737 13.89083806
   9.00510888  5.89622537 11.71525058
   9.29270719  7.30671461 11.35564716
   3.47551257  5.14354185 15.31339854
   3.33186677  3.80717588 16.37714826
   2.30354691  6.07401899 21.72363996
   3.02576320  6.12462729 20.35762256
   9.99641823  4.45649577 18.20924974
   9.37296480  3.97474560 19.53801212
   7.05428652  9.81433057 12.92934148
   5.83805138  8.63387907 12.80568652
   2.13198987  2.58265938 17.49215666
   3.65351066  2.13659062 17.81450506
  10.10591619  6.60852448  8.54566746
   9.25825264  6.43829655  7.19048308
   8.65810972  0.77313132 13.76427668
   8.96145283  9.50066131 13.76718310
   8.18300508 10.07575569  8.22754658
   7.41774617 10.18596933  9.57956032
   0.26745722  7.86125895 13.97168938
   9.13587256  7.30671461 13.39886042
   3.18137096  8.66996944  8.19451908
   4.41825839  8.95490953  9.21572938
   2.73295071  3.07207747  7.49142966
   2.86606589  3.52622311  9.00620292
   4.63878791  6.36856955 21.68189320
   6.11062055  5.91963810 21.69986016
   7.25907124  9.23146603 16.94152218
   6.84520777  9.43062760 15.43256176
   5.13740751  1.40425266 19.27167836
   5.97525612  1.55904251 17.92811966
   9.89100982  0.66598485  9.40385402
   0.97904066  1.59063436  9.27015870
   2.55945113  3.86637226 20.78882960
   2.63623261  2.81239041 19.62018454
   7.46365148  7.78294387  9.09577350
   6.84909285  6.87956007 10.19492870
   9.43400149  8.71515908  9.65512724
   0.59288396  8.21715291 10.48398538
   0.99918175  1.99182020 11.10463816
   1.84899231  2.83600762 12.32057860
   5.88467236  2.17452129 14.39232762
   5.66690329  3.64400244 14.79922642
   9.58592864  5.36591168 14.27897724
   9.29996616  3.91013055 14.81164476
   5.02566028  9.32951323 19.24948388
   5.09845445  8.14200724 20.16685572
   6.71403513  9.06798587 21.02055054
   7.42817455  0.12923010 21.64093910
   3.20079637  3.52152012  5.25269360
   4.45281517  3.58194336  6.11774988
  10.12840877  2.42347326 13.53519794
  10.20662161  1.93395292 15.05367028
   5.79388413  3.08557302  9.17873858
   5.28616526  1.92055961  8.35992080
   6.39280019  4.82537408  6.18301222
   5.32716310  5.90512016  6.15685444
   7.10857543  6.12697879 18.56806050
   7.09323958  7.65350930 19.07853354
   8.84674067 10.12309235 18.13183328
   7.79296330  0.82261499 17.56111808
   5.62897262  0.98998024 10.06863154
   5.85512529  9.90174491 11.04175380
   1.36356154  6.66915221  5.20619088
   1.03271614  6.51364669  6.71726506
   3.52274698  7.21909579 17.82163900
   2.60504972  5.93814336 17.93498938
   6.34914414  6.40312633 13.93364170
   5.55638293  5.96738371 12.59510318
   5.97811881  0.57928617  6.40971298
   7.49667467  0.30324087  6.37483594
   2.27502223  9.63531008 14.52840092
   3.28872191  0.57090258 14.85709060
   8.82608839  7.42214244 17.32807604
   9.35466402  7.93343968 15.97526964
   0.75299024  0.03343215 21.13020184
   0.27993038  8.79909730 20.79015070
   4.33544480  6.55760946 14.03351686
   3.62038523  7.21981146 15.48197090
   1.62672473  9.83712986  7.00975660
   2.02923967  8.35077928  6.39755886
   6.00286065  3.92863581 11.70441756
   4.98732066  4.78682998 10.67871552
   9.13801958  8.83815259  6.01206188
   9.72875652  0.09201510  6.03108572
  10.19118352  4.50669512  6.93524656
   0.22748177  3.94121121  5.39986414
   0.74818500  9.65156608 18.94193180
   0.18300781  8.87567431 17.68635836
   9.58306595  5.60014123 21.06705326
   9.77742229  4.57560421 22.24758822
   5.01748116  1.52908648 22.17149286
   3.93599702  2.08833381 21.14473394
 


--------------------------------------------------------------------------------------------------------


 k-point  1 :   0.0000 0.0000 0.0000  plane waves:   59767

 maximum and minimum number of plane-waves per node :     59767    59767

 maximum number of plane-waves:     59767
 maximum index in each direction: 
   IXMAX=   17   IYMAX=   17   IZMAX=   45
   IXMIN=  -17   IYMIN=  -17   IZMIN=  -45


 serial   3D FFT for wavefunctions
 parallel 3D FFT for charge:
    minimum data exchange during FFTs selected (reduces bandwidth)


 total amount of memory used by VASP MPI-rank0   160741. kBytes
=======================================================================

   base      :      30000. kBytes
   nonlr-proj:      38289. kBytes
   fftplans  :       4566. kBytes
   grid      :      41513. kBytes
   one-center:       8522. kBytes
   wavefun   :      37851. kBytes
 
     INWAV:  cpu time    0.0000: real time    0.0003
 Broyden mixing: mesh for mixing (old mesh)
   NGX = 35   NGY = 35   NGZ = 91
  (NGX  =108   NGY  =108   NGZ  =280)
  gives a total of 111475 points

 initial charge density was supplied:
 charge density of overlapping atoms calculated
 number of electron    1264.0000000 magnetization     274.0000000
 keeping initial charge density in first step


--------------------------------------------------------------------------------------------------------


 Maximum index for non-local projection operator         1752
 Maximum index for augmentation-charges          446 (set IRDMAX)


--------------------------------------------------------------------------------------------------------


 First call to EWALD:  gamma=   0.126
 Maximum number of real-space cells 4x 4x 2
 Maximum number of reciprocal cells 2x 2x 5

    FEWALD:  cpu time    0.0318: real time    0.0319


--------------------------------------- Iteration      1(   1)  ---------------------------------------


    POTLOK:  cpu time    0.2419: real time    0.2470
    SETDIJ:  cpu time    0.0558: real time    0.0561
    EDDIAG:  cpu time    4.2356: real time    4.2479
  RMM-DIIS:  cpu time    9.3872: real time    9.4095
    ORTHCH:  cpu time    1.1433: real time    1.1460
       DOS:  cpu time    0.0016: real time    0.0018
    --------------------------------------------
      LOOP:  cpu time   15.0654: real time   15.1082

 eigenvalue-minimisations  :  1824
 total energy-change (2. order) : 0.1120985E+05  (-0.4586025E+05)
 number of electron    1264.0000000 magnetization     274.0000000
 augmentation part     1264.0000000 magnetization     274.0000000

 Free energy of the ion-electron system (eV)
  ---------------------------------------------------
  alpha Z        PSCENC =      2855.32033189
  Ewald energy   TEWEN  =    137380.89876225
  -Hartree energ DENC   =   -254278.72597146
  -exchange      EXHF   =         0.00000000
  -V(xc)+E(xc)   XCENC  =      5165.74604966
  PAW double counting   =    102648.41696062  -109243.99932965
  entropy T*S    EENTRO =        -0.12378899
  eigenvalues    EBANDS =      6356.05045390
  atomic energy  EATOM  =    120326.26917517
  Solvation  Ediel_sol  =         0.00000000
  ---------------------------------------------------
  free energy    TOTEN  =     11209.85264340 eV

  energy without entropy =    11209.97643239  energy(sigma->0) =    11209.89390639


--------------------------------------------------------------------------------------------------------




--------------------------------------- Iteration      1(   2)  ---------------------------------------


    EDDIAG:  cpu time    4.4932: real time    4.5058
  RMM-DIIS:  cpu time    8.9651: real time    8.9873
    ORTHCH:  cpu time    1.1421: real time    1.1448
       DOS:  cpu time    0.0009: real time    0.0009
    --------------------------------------------
      LOOP:  cpu time   14.6013: real time   14.6388

 eigenvalue-minimisations  :  1824
 total energy-change (2. order) :-0.8428659E+04  (-0.9680593E+04)
 number of electron    1264.0000000 magnetization     274.0000000
 augmentation part     1264.0000000 magnetization     274.0000000

 Free energy of the ion-electron system (eV)
  ---------------------------------------------------
  alpha Z        PSCENC =      2855.32033189
  Ewald energy   TEWEN  =    137380.89876225
  -Hartree energ DENC   =   -254278.72597146
  -exchange      EXHF   =         0.00000000
  -V(xc)+E(xc)   XCENC  =      5165.74604966
  PAW double counting   =    102648.41696062  -109243.99932965
  entropy T*S    EENTRO =        -0.02639659
  eigenvalues    EBANDS =     -2072.70574775
  atomic energy  EATOM  =    120326.26917517
  Solvation  Ediel_sol  =         0.00000000
  ---------------------------------------------------
  free energy    TOTEN  =      2781.19383415 eV

  energy without entropy =     2781.22023074  energy(sigma->0) =     2781.20263301


--------------------------------------------------------------------------------------------------------




--------------------------------------- Iteration      1(   3)  ---------------------------------------


    EDDIAG:  cpu time    4.5143: real time    4.5302
  RMM-DIIS:  cpu time    9.3294: real time    9.3515
    ORTHCH:  cpu time    1.1367: real time    1.1417
       DOS:  cpu time    0.0010: real time    0.0010
    --------------------------------------------
      LOOP:  cpu time   14.9814: real time   15.0243

 eigenvalue-minimisations  :  1824
 total energy-change (2. order) :-0.2002575E+04  (-0.1816471E+04)
 number of electron    1264.0000000 magnetization     274.0000000
 augmentation part     1264.0000000 magnetization     274.0000000

 Free energy of the ion-electron system (eV)
  ---------------------------------------------------
  alpha Z        PSCENC =      2855.32033189
  Ewald energy   TEWEN  =    137380.89876225
  -Hartree energ DENC   =   -254278.72597146
  -exchange      EXHF   =         0.00000000
  -V(xc)+E(xc)   XCENC  =      5165.74604966
  PAW double counting   =    102648.41696062  -109243.99932965
  entropy T*S    EENTRO =        -0.03118611
  eigenvalues    EBANDS =     -4075.27617966
  atomic energy  EATOM  =    120326.26917517
  Solvation  Ediel_sol  =         0.00000000
  ---------------------------------------------------
  free energy    TOTEN  =       778.61861271 eV

  energy without entropy =      778.64979882  energy(sigma->0) =      778.62900808


--------------------------------------------------------------------------------------------------------




--------------------------------------- Iteration      1(   4)  ---------------------------------------


    EDDIAG:  cpu time    4.2794: real time    4.2918
  RMM-DIIS:  cpu time    9.6843: real time    9.7071
    ORTHCH:  cpu time    1.0506: real time    1.0548
       DOS:  cpu time    0.0009: real time    0.0009
    --------------------------------------------
      LOOP:  cpu time   15.0152: real time   15.0546

 eigenvalue-minimisations  :  1824
 total energy-change (2. order) :-0.1050071E+04  (-0.6813088E+03)
 number of electron    1264.0000000 magnetization     274.0000000
 augmentation part     1264.0000000 magnetization     274.0000000

 Free energy of the ion-electron system (eV)
  ---------------------------------------------------
  alpha Z        PSCENC =      2855.32033189
  Ewald energy   TEWEN  =    137380.89876225
  -Hartree energ DENC   =   -254278.72597146
  -exchange      EXHF   =         0.00000000
  -V(xc)+E(xc)   XCENC  =      5165.74604966
  PAW double counting   =    102648.41696062  -109243.99932965
  entropy T*S    EENTRO =        -0.06040969
  eigenvalues    EBANDS =     -5125.31762993
  atomic energy  EATOM  =    120326.26917517
  Solvation  Ediel_sol  =         0.00000000
  ---------------------------------------------------
  free energy    TOTEN  =      -271.45206113 eV

  energy without entropy =     -271.39165144  energy(sigma->0) =     -271.43192457


--------------------------------------------------------------------------------------------------------




--------------------------------------- Iteration      1(   5)  ---------------------------------------


    EDDIAG:  cpu time    4.3776: real time    4.3905
  RMM-DIIS:  cpu time    9.5957: real time    9.6189
    ORTHCH:  cpu time    1.1118: real time    1.1145
       DOS:  cpu time    0.0010: real time    0.0010
    --------------------------------------------
      LOOP:  cpu time   15.0861: real time   15.1250

 eigenvalue-minimisations  :  1824
 total energy-change (2. order) :-0.4762835E+03  (-0.3534307E+03)
 number of electron    1264.0000000 magnetization     274.0000000
 augmentation part     1264.0000000 magnetization     274.0000000

 Free energy of the ion-electron system (eV)
  ---------------------------------------------------
  alpha Z        PSCENC =      2855.32033189
  Ewald energy   TEWEN  =    137380.89876225
  -Hartree energ DENC   =   -254278.72597146
  -exchange      EXHF   =         0.00000000
  -V(xc)+E(xc)   XCENC  =      5165.74604966
  PAW double counting   =    102648.41696062  -109243.99932965
  entropy T*S    EENTRO =         0.00267992
  eigenvalues    EBANDS =     -5601.66424540
  atomic energy  EATOM  =    120326.26917517
  Solvation  Ediel_sol  =         0.00000000
  ---------------------------------------------------
  free energy    TOTEN  =      -747.73558700 eV

  energy without entropy =     -747.73826692  energy(sigma->0) =     -747.73648030


--------------------------------------------------------------------------------------------------------




--------------------------------------- Iteration      1(   6)  ---------------------------------------


    EDDIAG:  cpu time    4.1669: real time    4.1810
  RMM-DIIS:  cpu time    9.2823: real time    9.3044
    ORTHCH:  cpu time    1.1407: real time    1.1435
       DOS:  cpu time    0.0009: real time    0.0009
    --------------------------------------------
      LOOP:  cpu time   14.5909: real time   14.6298

 eigenvalue-minimisations  :  1824
 total energy-change (2. order) :-0.2054228E+03  (-0.1388098E+03)
 number of electron    1264.0000000 magnetization     274.0000000
 augmentation part     1264.0000000 magnetization     274.0000000

 Free energy of the ion-electron system (eV)
  ---------------------------------------------------
  alpha Z        PSCENC =      2855.32033189
  Ewald energy   TEWEN  =    137380.89876225
  -Hartree energ DENC   =   -254278.72597146
  -exchange      EXHF   =         0.00000000
  -V(xc)+E(xc)   XCENC  =      5165.74604966
  PAW double counting   =    102648.41696062  -109243.99932965
  entropy T*S    EENTRO =         0.07681917
  eigenvalues    EBANDS =     -5807.16117764
  atomic energy  EATOM  =    120326.26917517
  Solvation  Ediel_sol  =         0.00000000
  ---------------------------------------------------
  free energy    TOTEN  =      -953.15837999 eV

  energy without entropy =     -953.23519916  energy(sigma->0) =     -953.18398638


--------------------------------------------------------------------------------------------------------




--------------------------------------- Iteration      1(   7)  ---------------------------------------


    EDDIAG:  cpu time    4.4751: real time    4.4883
  RMM-DIIS:  cpu time    8.8610: real time    8.8832
    ORTHCH:  cpu time    1.1836: real time    1.1864
       DOS:  cpu time    0.0010: real time    0.0010
    --------------------------------------------
[...]
      8.55669      8.91575      1.39587        -0.363262      0.190573     -0.319518
      3.32778      3.66772     23.80252        -0.263169      0.423635      0.507713
      4.46191      5.14047      3.23432        -0.002874     -0.145615      0.071585
      5.83509      8.04938      6.63060         1.157170     -0.096504     -1.866359
      8.31295      6.83580      5.97560        -0.095042      0.702233      0.684424
      0.83897      1.78990     16.53013         0.325251     -0.529521     -0.248999
      4.25468      0.24476      5.34306        -1.239868      0.073678      0.392138
      0.82854      1.15428      6.14946        -0.102172      1.570817     -0.208723
      7.29578      3.00971     12.15253        -0.230389      0.173422      0.135958
      1.02096      5.42429     17.22344        -1.568496      1.498221      0.234070
      8.08077      1.25979     20.52408        -1.146738      1.780963      0.088307
      6.83049      4.00337     20.90535         1.168461     -0.481516      2.061808
      1.86034      8.49044     13.57668         0.118190      0.651272     -1.512232
      7.32706      2.33954     17.12146         0.105338      0.053003      0.334048
      0.56477      1.56753     21.78969        -0.076075      0.215616      0.361566
      6.05531      4.89684     18.03619         0.592397      0.386613     -1.877245
      7.65392      4.04539      8.80064         0.422534      0.223405     -0.864870
      6.91657      6.00971     15.54063        -0.767638     -1.535469     -0.095132
      9.50557      4.39147     10.97491         0.353893     -0.694205     -0.441522
      3.91136      8.43482     16.61600        -1.448985      0.027482     -0.538713
      4.49616      5.35651      9.14835        -1.111716      0.357055      1.224426
      7.24363      3.18556      5.42312         0.332127     -0.967107      0.478985
      4.74154      1.00409     13.99362        -0.257345      0.310519      0.690027
      2.06237      8.80492     10.99525        -0.699352      1.375489     -0.212297
      3.34823      8.86381     21.88138         0.577251     -0.027905      0.320196
      9.47612      7.26449     20.83190        -0.445180     -0.157127     -1.477716
      3.28116      3.23208     12.93251        -0.024983      0.001309      1.312135
      8.75830      6.78243     11.99559        -0.857355      0.422258      0.912686
      3.63143      4.17309     15.47801         0.175340     -1.099143      0.250919
      3.01564      5.62069     21.22083        -0.046679      0.431274     -0.490919
      9.12626      4.13782     18.60320         0.735391     -0.080374     -0.261244
      6.01779      9.56037     12.65693         1.815611      1.550629     -0.485638
      2.98487      2.88825     17.83300         1.269328      0.265353      0.697344
     10.00644      6.02525      7.71179         0.401496      1.106301      1.572509
      8.23637     10.13781     13.76269        -1.179779     -0.245062     -0.276510
      8.35804      9.94182      9.19723        -0.812884      0.478085     -0.600317
      9.55107      7.79940     14.19073        -1.076029      0.017688      0.185215
      3.84378      8.25099      8.86881        -0.950766     -0.181926     -0.375613
      2.23995      3.11481      8.34195         0.027077      0.248629      1.046264
      5.55884      6.66200     21.87874        -0.800442      1.668221      0.617975
      6.75687      8.80472     16.16630        -0.211771     -0.622003      0.340072
      5.11420      1.17514     18.32656         0.524716      0.239661     -0.628384
      0.60086      0.89040      9.79966        -1.530059     -1.148946      0.040458
      2.33933      2.89520     20.55790         0.758748      1.622530      0.601807
      6.92884      6.96145      9.22603         0.322574      0.403332     -0.179849
      9.96973      7.91606     10.07920        -1.153157      0.940799     -1.513823
      0.98558      2.63572     11.93640        -2.131894     -1.520581     -2.291028
      6.40609      2.95573     14.70411        -0.750198      1.659436      0.219281
      9.20611      4.91228     15.04257         0.378480     -1.485666      0.116822
      5.67702      8.68704     19.64370        -0.306930      0.974980     -0.904527
      7.06819      9.41222     21.85232         0.896473      1.171399      1.457471
      3.71087      2.99407      5.91853        -0.764276     -0.386960     -0.195291
      9.57080      2.34465     14.36300         0.973312     -0.627744     -0.363820
      5.13904      2.39434      9.15813        -1.241298     -0.136817      1.742097
      5.60996      5.12780      6.70722         0.007711      0.180555     -1.242766
      7.69584      6.87199     18.90468        -0.057986      1.189645     -0.092385
      7.85400     10.17851     17.99787         1.272177     -0.701243      1.176736
      5.82987     10.17697     10.05436        -0.184101      1.616212      0.746936
      1.64717      6.92792      6.05513         1.262076      0.777485      2.228579
      3.28842      6.42061     18.44916         0.956154      1.235452     -0.669447
      5.65944      6.71710     13.25988         0.498532     -0.505268     -0.318298
      6.84746      0.89981      6.82216        -1.856411      0.149681     -0.806442
      2.52980      0.08394     15.31419         0.498699     -0.503666     -1.588480
      9.69941      7.69655     16.85142        -1.973145     -1.334848      1.707429
      1.02832      9.42817     20.65778        -0.132700     -0.076740      0.230528
      3.50997      6.61292     14.64492        -0.822916      0.311950      0.687865
      2.39975      9.21511      6.87633        -0.952942     -0.171181     -0.346923
      5.09702      4.50659     11.65025         1.950480     -0.412479     -0.851272
      8.92853      9.78734      6.21260        -0.308201     -1.454672      0.022383
      9.89674      3.87087      6.20415        -0.098347     -0.490470      0.950761
      0.43901      9.74788     18.01320        -0.010625      1.727908      0.541149
      9.43973      4.63408     21.32097         0.063484     -0.077506     -0.372880
      4.53737      1.33585     21.26997         1.419418     -0.514505      1.182966
      5.33708      8.09273      5.78034         0.028578      0.258073      0.491170
      5.23770      8.06748      7.37200        -1.088058     -0.042362      1.079377
      7.49115      7.31847      6.24061        -0.349309     -0.120595     -0.081245
      8.19333      6.52009      5.05215        -0.022839     -0.147660     -0.478223
      0.51712      1.06257     17.13572         0.065167      0.071275     -0.065123
      1.51927      1.25406     16.00460        -0.113125     -0.006167      0.234544
      3.39137     10.01543      5.69103         1.163341     -0.090194      0.071437
      3.95961      1.18802      5.46037         0.416574      0.231673     -0.151923
      0.62253      2.11287      6.42504        -0.053851     -1.066108     -0.001680
      1.01114      1.31091      5.17105         0.019325     -0.363654      0.203946
      7.16716      3.11379     13.14917         0.373293     -0.060581     -0.570193
      8.17881      3.36499     11.86401        -0.299155      0.118830      0.359004
      0.94438      4.98568     16.37556         0.167766     -0.885544     -0.887525
      0.29752      6.15857     17.03136         1.424676     -0.580346      0.592564
      7.71240      0.73581     19.77740         0.342984     -0.248867     -0.440858
      7.52724      2.12534     20.46173         0.829485     -1.111570      0.517992
      7.81883      4.20560     21.07075        -0.802624      0.057074      0.048843
      6.69809      4.21889     20.00093        -0.365832      0.522221     -2.227720
      2.33739      7.67222     13.83350         0.819659     -0.623044      0.469915
      2.12657      8.66302     12.58744        -0.629907     -0.200902      1.242730
      6.94561      2.71220     16.26591         0.449928     -0.132623      0.151647
      7.89582      2.98875     17.62004        -0.216655      0.045413     -0.389817
      9.86228      1.77875     21.59787        -0.666819     -0.126299     -0.161453
      1.09406      2.26511     21.27447         0.427016     -0.379897      0.107509
      5.16358      5.14988     18.33026        -0.617893      0.290076     -0.323672
      6.10898      5.08312     16.99542        -0.205251     -0.079170      2.287352
      7.41938      4.99765      8.61172         0.269597     -0.388622      0.330397
      8.24977      3.79388      8.04154        -0.713152      0.250786      0.672975
      7.28412      6.80953     15.88623        -0.137392      2.171790      0.573275
      7.73796      5.45997     15.54406         0.521628     -0.627250     -0.740662
      9.06236      4.02740     10.17221        -0.209765      0.567997     -0.056390
      0.15315      3.88457     11.03594        -0.599119      0.232038      0.671067
      3.42951      9.16245     16.03366         0.494131     -0.399848      1.167727
      4.87056      8.54084     16.55365         1.060849      0.405179     -0.265138
      5.06472      5.17994      8.40140         0.752741     -0.187944     -1.211337
      4.23995      6.30130      9.03025         0.093623     -0.074209      0.214771
      7.05950      2.30794      5.92328        -0.310352      0.317257     -0.079151
      8.20202      3.28801      5.66012         0.180599      0.568617     -0.283664
      4.17749      1.43881     13.32726        -0.102069      0.678000     -0.296485
      5.25846      0.27962     13.52040        -0.120517     -0.286514     -0.315057
      2.76914      8.56282     10.38596         1.184931     -1.009801     -0.792032
      1.76904      9.64339     10.53577        -0.257202      0.065645      0.651062
      3.86545      9.62642     21.51913        -0.277221      0.163253      0.294539
      2.39454      9.08578     21.72813        -0.092888     -0.024500     -0.676799
      8.75125      7.16113     20.05218         0.801695     -0.116897      1.375124
      9.04836      7.35661     21.70171        -0.472193      0.264280      0.157814
      3.90001      3.67488     12.26747         0.032140      0.197925      0.676092
      3.38697      3.64697     13.89084        -0.105684     -0.650347     -1.422485
      9.00511      5.89623     11.71525         0.149553     -1.457151     -0.271330
      9.29271      7.30671     11.35565         0.005672      0.581778     -0.619680
      3.47551      5.14354     15.31340        -0.122280      0.357722      0.203329
      3.33187      3.80718     16.37715         0.347202      0.544219     -0.750225
      2.30355      6.07402     21.72364        -0.039010     -0.143566      0.280928
      3.02576      6.12463     20.35762         0.046561     -0.280206     -0.333585
      9.99642      4.45650     18.20925        -0.680304     -0.155975     -0.072893
      9.37296      3.97475     19.53801        -0.104981     -0.002675      0.007810
      7.05429      9.81433     12.92934        -1.431451     -0.672851      0.002206
      5.83805      8.63388     12.80569         0.084021     -1.658350      0.381985
      2.13199      2.58266     17.49216        -0.970864     -0.702529     -0.532762
      3.65351      2.13659     17.81451        -0.178316      0.257619      0.003997
     10.10592      6.60852      8.54567        -0.128351     -0.920896     -0.746941
      9.25825      6.43830      7.19048         0.053397     -0.309570     -0.271192
      8.65811      0.77313     13.76428         0.385726      1.696471      0.170363
      8.96145      9.50066     13.76718         0.556279     -1.394101      0.228835
      8.18301     10.07576      8.22755         0.360879     -0.200174      0.342148
      7.41775     10.18597      9.57956         0.547207     -0.490871      0.089190
      0.26746      7.86126     13.97169         0.912102      0.344021     -0.224767
      9.13587      7.30671     13.39886         0.106064      0.177965      0.023400
      3.18137      8.66997      8.19452         0.701560     -0.185788      0.321910
      4.41826      8.95491      9.21573         0.613062      0.571744      0.115271
      2.73295      3.07208      7.49143         0.199228     -0.009926      0.107691
      2.86607      3.52622      9.00620        -0.513462     -0.399364     -1.009355
      4.63879      6.36857     21.68189        -0.350603     -0.280730      0.075769
      6.11062      5.91964     21.69986         1.228632     -1.920508     -0.807500
      7.25907      9.23147     16.94152        -0.348430      0.129843     -0.346960
      6.84521      9.43063     15.43256         0.254045      0.133265     -0.282176
      5.13741      1.40425     19.27168         0.041283      0.079533      0.486399
      5.97526      1.55904     17.92812        -0.980228     -0.098008      0.365219
      9.89101      0.66598      9.40385         1.242841      0.270914      0.945547
      0.97904      1.59063      9.27016         0.742200      0.903120     -1.193470
      2.55945      3.86637     20.78883        -0.401826     -0.912393     -0.189884
      2.63623      2.81239     19.62018        -0.225356      0.067164     -0.712416
      7.46365      7.78294      9.09577        -0.332479     -0.459523      0.174418
      6.84909      6.87956     10.19493         0.181907      0.003946      0.061887
      9.43400      8.71516      9.65513         0.986128     -1.214277      1.065580
      0.59288      8.21715     10.48399         0.237397      0.206118     -0.252146
      0.99918      1.99182     11.10464         0.039238      1.031320      2.229269
      1.84899      2.83601     12.32058         1.884708      0.230568      0.345637
      5.88467      2.17452     14.39233        -0.538408     -0.665945      0.045979
      5.66690      3.64400     14.79923         0.768220     -0.777925      0.074216
      9.58593      5.36591     14.27898         0.008793      0.421816     -0.219190
      9.29997      3.91013     14.81164        -0.098785      0.703942      0.252558
      5.02566      9.32951     19.24948         0.981609     -0.034738     -0.231797
      5.09845      8.14201     20.16686        -0.620240     -1.128740      0.914699
      6.71404      9.06799     21.02055        -0.575078     -0.153869     -0.751376
      7.42817      0.12923     21.64094        -0.469898     -1.177546      0.013039
      3.20080      3.52152      5.25269        -0.028458     -0.262281     -0.116999
      4.45282      3.58194      6.11775         0.879745      0.712239      0.366685
     10.12841      2.42347     13.53520        -0.170308      0.000957      0.115703
     10.20662      1.93395     15.05367        -0.795378      0.749053     -0.078631
      5.79388      3.08557      9.17874         1.207182      0.859959     -0.085600
      5.28617      1.92056      8.35992         0.397877     -0.834185     -1.664393
      6.39280      4.82537      6.18301        -0.090236     -0.447227      0.325412
      5.32716      5.90512      6.15685         0.008078     -0.282846      0.663713
      7.10858      6.12698     18.56806         0.008064     -0.185720      0.185457
      7.09324      7.65351     19.07853         0.001365     -0.609706     -0.353150
      8.84674     10.12309     18.13183        -0.081894     -0.459087     -0.074010
      7.79296      0.82261     17.56112        -0.500405      1.146516     -0.685972
      5.62897      0.98998     10.06863         0.152329     -1.839190     -0.301576
      5.85513      9.90174     11.04175         0.051724      0.238576     -0.549972
      1.36356      6.66915      5.20619        -0.841873     -0.743230     -2.609566
      1.03272      6.51365      6.71727        -0.375179     -0.060942      0.265618
      3.52275      7.21910     17.82164        -0.444026     -1.100746      1.115370
      2.60505      5.93814     17.93499        -0.451156     -0.096126     -0.013884
      6.34914      6.40313     13.93364        -0.570404      0.264077     -0.212580
      5.55638      5.96738     12.59510         0.053982      0.152847      0.145058
      5.97812      0.57929      6.40971         0.725804      0.229265      0.547115
      7.49667      0.30324      6.37484         0.575244     -0.232127     -0.034407
      2.27502      9.63531     14.52840        -0.201348      0.637389      1.044067
      3.28872      0.57090     14.85709        -0.068294     -0.226676      0.501747
      8.82609      7.42214     17.32808         1.520133      0.404853     -0.081498
      9.35466      7.93344     15.97527         0.293171      0.058783     -1.372576
      0.75299      0.03343     21.13020         0.056233      0.360897     -0.096945
      0.27993      8.79910     20.79015        -0.018638     -0.482046     -0.021153
      4.33544      6.55761     14.03352        -0.069868      0.679719      0.835176
      3.62039      7.21981     15.48197         0.564922     -0.495565     -1.262338
      1.62672      9.83713      7.00976         0.779396     -0.320073     -0.319609
      2.02924      8.35078      6.39756         0.229832      0.546897      0.604578
      6.00286      3.92864     11.70442        -1.312032      0.783854      0.012110
      4.98732      4.78683     10.67872        -0.121437     -0.045829      0.594226
      9.13802      8.83815      6.01206        -0.336982      0.486690     -0.026415
      9.72876      0.09202      6.03109         0.666628      0.652078      0.024701
     10.19118      4.50670      6.93525        -0.119178     -0.219202     -0.798193
      0.22748      3.94121      5.39986         0.189560      0.388834     -0.221790
      0.74819      9.65157     18.94193         0.222325      0.011549      0.363604
      0.18301      8.87567     17.68636        -0.240652     -1.055976     -0.700506
      9.58307      5.60014     21.06705        -0.041960     -0.077443      0.062172
      9.77742      4.57560     22.24759        -0.031614     -0.003060      0.186349
      5.01748      1.52909     22.17149        -0.797347     -0.217796     -1.527484
      3.93600      2.08833     21.14473        -0.760771      0.419457      0.059428
 -----------------------------------------------------------------------------------
    total drift:                                0.077078      0.007912     -0.040732


--------------------------------------------------------------------------------------------------------



  FREE ENERGIE OF THE ION-ELECTRON SYSTEM (eV)
  ---------------------------------------------------
  free  energy   TOTEN  =     -1274.77334893 eV

  energy  without entropy=    -1274.87548616  energy(sigma->0) =    -1274.80739468
 


--------------------------------------------------------------------------------------------------------


    POTLOK:  cpu time    0.2985: real time    0.2992


--------------------------------------------------------------------------------------------------------


     LOOP+:  cpu time 1278.2841: real time 1281.8849
    4ORBIT:  cpu time    0.0000: real time    0.0000

 total amount of memory used by VASP MPI-rank0   160741. kBytes
=======================================================================

   base      :      30000. kBytes
   nonlr-proj:      38289. kBytes
   fftplans  :       4566. kBytes
   grid      :      41513. kBytes
   one-center:       8522. kBytes
   wavefun   :      37851. kBytes
 
  
  
 General timing and accounting informations for this job:
 ========================================================
  
                  Total CPU time used (sec):     1292.527
                            User time (sec):     1273.352
                          System time (sec):       19.175
                         Elapsed time (sec):     1296.379
  
                   Maximum memory used (kb):      818876.
                   Average memory used (kb):           0.
  
                          Minor page faults:      2542857
                          Major page faults:            0
                 Voluntary context switches:         1623
