<?xml version="1.0" encoding="ISO-8859-1"?>
<modeling>
 <generator>
  <i name="program" type="string">vasp </i>
  <i name="version" type="string">5.4.4.18Apr17-6-g9f103f2a35  </i>
  <i name="subversion" type="string">(build Sep 10 2020 19:07:03) complex            parallel </i>
  <i name="platform" type="string">LinuxIFC </i>
  <i name="date" type="string">2026 03 04 </i>
  <i name="time" type="string">00:41:06 </i>
 </generator>
 <incar>
  <i type="string" name="SYSTEM"> bader</i>
  <i type="int" name="ISTART">     0</i>
  <i type="string" name="PREC">normal</i>
  <i type="string" name="ALGO"> VeryFast</i>
  <i type="int" name="ISPIN">     2</i>
  <i type="int" name="ICHARG">     2</i>
  <i type="int" name="INIWAV">     1</i>
  <i type="int" name="NELM">   200</i>
  <i type="int" name="NELMIN">     4</i>
  <i type="int" name="IBRION">    -1</i>
  <i name="EDIFF">      0.00000100</i>
  <i name="EDIFFG">     -0.01000000</i>
  <i type="int" name="NSW">     0</i>
  <i type="int" name="ISIF">     2</i>
  <i type="int" name="ISYM">     0</i>
  <i name="ENCUT">    450.00000000</i>
  <i name="POTIM">      0.10000000</i>
  <i type="string" name="LREAL"> Auto</i>
  <i type="int" name="ISMEAR">     1</i>
  <i name="SIGMA">      0.20000000</i>
  <i type="logical" name="LWAVE"> F  </i>
  <i type="logical" name="LCHARG"> T  </i>
  <i type="logical" name="LVTOT"> F  </i>
  <i type="logical" name="LELF"> F  </i>
  <v type="int" name="KPOINT_BSE">    -1     0     0     0</v>
  <i type="int" name="NELM">   200</i>
 </incar>
 <structure name="primitive_cell" >
  <crystal>
   <varray name="basis" >
    <v>      10.22390000       0.00000000       0.00000000 </v>
    <v>       0.00000000      10.22390000       0.00000000 </v>
    <v>       0.00000000       0.00000000      26.42200000 </v>
   </varray>
   <i name="volume">   2761.84228283 </i>
   <varray name="rec_basis" >
    <v>       0.09781003      -0.00000000      -0.00000000 </v>
    <v>       0.00000000       0.09781003      -0.00000000 </v>
    <v>       0.00000000       0.00000000       0.03784725 </v>
   </varray>
  </crystal>
  <varray name="positions" >
   <v>      -0.04936000       0.00704000      -0.02503000 </v>
   <v>      -0.19053000       0.12616000      -0.08127000 </v>
   <v>       0.08832000      -0.12262000      -0.08354000 </v>
   <v>      -0.19241000      -0.11876000      -0.08331000 </v>
   <v>       0.07454000       0.13621000      -0.09107000 </v>
   <v>       0.19870000       0.00212000      -0.02012000 </v>
   <v>       0.06452000       0.11706000       0.05026000 </v>
   <v>      -0.05115000      -0.24401000      -0.01992000 </v>
   <v>      -0.05208000       0.26104000      -0.01913000 </v>
   <v>      -0.30190000      -0.00141000      -0.01018000 </v>
   <v>       0.07469000      -0.11543000       0.05169000 </v>
   <v>      -0.16307000      -0.12795000       0.05283000 </v>
   <v>      -0.17865000       0.12693000       0.05590000 </v>
   <v>       0.19191000       0.24539000      -0.02075000 </v>
   <v>      -0.29350000       0.24343000      -0.01598000 </v>
   <v>       0.20544000      -0.24385000      -0.01691000 </v>
   <v>      -0.30539000      -0.24615000      -0.02161000 </v>
   <v>      -0.05611000       0.01256000       0.11889000 </v>
   <v>      -0.17506000      -0.35962000      -0.08033000 </v>
   <v>      -0.18394000       0.37135000      -0.08356000 </v>
   <v>       0.32766000       0.10941000      -0.08361000 </v>
   <v>      -0.42194000       0.11492000      -0.08736000 </v>
   <v>       0.05188000      -0.36876000      -0.09024000 </v>
   <v>       0.05952000       0.38631000      -0.08807000 </v>
   <v>       0.05524000       0.15332000      -0.17532000 </v>
   <v>       0.32360000      -0.13021000      -0.08668000 </v>
   <v>       0.06136000       0.37404000       0.05201000 </v>
   <v>      -0.18489000       0.36750000       0.05373000 </v>
   <v>       0.31699000      -0.12647000       0.05180000 </v>
   <v>      -0.30842000       0.00328000       0.11161000 </v>
   <v>      -0.42925000      -0.12888000      -0.09227000 </v>
   <v>       0.33322000       0.13068000       0.04385000 </v>
   <v>      -0.03537000       0.17398000      -0.18258000 </v>
   <v>      -0.42857000       0.11943000       0.05007000 </v>
   <v>      -0.03230000       0.25062000       0.11890000 </v>
   <v>      -0.17570000      -0.37682000       0.04708000 </v>
   <v>       0.07592000      -0.37485000       0.04934000 </v>
   <v>      -0.43256000      -0.12375000       0.05083000 </v>
   <v>       0.18916000      -0.00963000       0.12253000 </v>
   <v>      -0.27345000       0.01264000      -0.18095000 </v>
   <v>      -0.05866000      -0.25969000       0.12241000 </v>
   <v>       0.07365000       0.00327000      -0.20028000 </v>
   <v>      -0.30866000      -0.07939000      -0.17295000 </v>
   <v>      -0.11498000      -0.28045000      -0.17865000 </v>
   <v>       0.45437000      -0.02662000      -0.01859000 </v>
   <v>      -0.04925000      -0.49262000      -0.01961000 </v>
   <v>       0.23421000      -0.11132000      -0.17765000 </v>
   <v>       0.20346000       0.24047000       0.11888000 </v>
   <v>      -0.30205000      -0.24553000       0.11448000 </v>
   <v>       0.19948000      -0.24766000       0.11667000 </v>
   <v>       0.10701000       0.22155000      -0.19482000 </v>
   <v>       0.02738000      -0.13936000      -0.21315000 </v>
   <v>       0.10058000      -0.07783000      -0.21816000 </v>
   <v>      -0.30632000       0.26357000       0.12608000 </v>
   <v>       0.18780000       0.49448000      -0.01776000 </v>
   <v>      -0.41975000       0.36935000      -0.08742000 </v>
   <v>       0.31837000      -0.36557000      -0.08510000 </v>
   <v>       0.45825000       0.24454000      -0.01930000 </v>
   <v>       0.30801000       0.37538000       0.04860000 </v>
   <v>       0.32549000       0.35874000      -0.09914000 </v>
   <v>      -0.20962000       0.12322000      -0.22322000 </v>
   <v>       0.32749000      -0.13303000      -0.17185000 </v>
   <v>      -0.04367000       0.44754000      -0.15799000 </v>
   <v>      -0.42174000      -0.36675000       0.04623000 </v>
   <v>      -0.31276000      -0.49927000      -0.02061000 </v>
   <v>      -0.34330000      -0.11306000      -0.20443000 </v>
   <v>      -0.42674000       0.37776000       0.04973000 </v>
   <v>       0.44779000      -0.26168000      -0.02212000 </v>
   <v>      -0.07314000      -0.28946000      -0.21157000 </v>
   <v>       0.31570000      -0.38619000       0.04572000 </v>
   <v>      -0.42639000      -0.38070000      -0.09080000 </v>
   <v>      -0.26376000       0.20788000      -0.22558000 </v>
   <v>       0.49076000       0.14956000      -0.16087000 </v>
   <v>       0.37808000      -0.05844000      -0.18556000 </v>
   <v>       0.09890000       0.12822000       0.19571000 </v>
   <v>       0.43126000       0.00146000       0.11914000 </v>
   <v>      -0.06960000      -0.49964000       0.11669000 </v>
   <v>      -0.24565000       0.07197000      -0.25148000 </v>
   <v>      -0.07670000       0.45326000      -0.19306000 </v>
   <v>       0.22531000      -0.40590000      -0.17782000 </v>
   <v>      -0.23524000       0.41135000      -0.20253000 </v>
   <v>       0.22881000       0.28318000      -0.22194000 </v>
   <v>      -0.14404000      -0.29957000      -0.24108000 </v>
   <v>       0.16192000       0.49100000       0.12106000 </v>
   <v>      -0.06268000      -0.45225000      -0.20267000 </v>
   <v>      -0.04843000       0.00900000       0.22826000 </v>
   <v>       0.38498000       0.20426000      -0.19973000 </v>
   <v>       0.45214000       0.24642000       0.11364000 </v>
   <v>      -0.45629000      -0.34839000      -0.17195000 </v>
   <v>       0.44691000      -0.24874000       0.11230000 </v>
   <v>      -0.29952000      -0.48158000       0.12122000 </v>
   <v>      -0.10621000      -0.13554000       0.22754000 </v>
   <v>       0.44380000       0.13066000      -0.19499000 </v>
   <v>      -0.33191000       0.39157000      -0.20879000 </v>
   <v>      -0.12670000      -0.04270000       0.23513000 </v>
   <v>       0.07318000      -0.05598000      -0.28310000 </v>
   <v>       0.25034000       0.37817000      -0.21320000 </v>
   <v>      -0.40232000      -0.42100000      -0.17872000 </v>
   <v>      -0.19861000      -0.36227000       0.19121000 </v>
   <v>       0.08104000       0.11290000       0.23274000 </v>
   <v>       0.44602000       0.49060000      -0.02150000 </v>
   <v>       0.13337000      -0.34769000       0.19704000 </v>
   <v>       0.02225000       0.38549000       0.20437000 </v>
   <v>      -0.19776000       0.32160000       0.21422000 </v>
   <v>      -0.29150000       0.31158000       0.20525000 </v>
   <v>      -0.08323000       0.38877000      -0.26054000 </v>
   <v>      -0.26675000       0.02966000       0.24127000 </v>
   <v>       0.29496000      -0.45024000      -0.19685000 </v>
   <v>       0.25785000       0.27508000      -0.25743000 </v>
   <v>      -0.30951000       0.22574000       0.22418000 </v>
   <v>       0.33171000      -0.02039000       0.21539000 </v>
   <v>       0.06089000       0.20666000       0.24317000 </v>
   <v>      -0.44473000      -0.15032000      -0.25654000 </v>
   <v>       0.49868000      -0.20363000      -0.23674000 </v>
   <v>       0.45372000      -0.37709000      -0.17940000 </v>
   <v>      -0.18691000      -0.33139000       0.22616000 </v>
   <v>      -0.30621000      -0.25141000      -0.27793000 </v>
   <v>       0.38729000       0.11620000       0.20666000 </v>
   <v>       0.41615000       0.02394000       0.20222000 </v>
   <v>      -0.13470000      -0.00986000      -0.31376000 </v>
   <v>       0.29595000      -0.40095000      -0.22952000 </v>
   <v>      -0.34486000       0.41265000      -0.24302000 </v>
   <v>       0.19848000      -0.18321000       0.24213000 </v>
   <v>       0.31307000       0.34444000       0.19880000 </v>
   <v>       0.16111000      -0.32238000       0.22917000 </v>
   <v>       0.04294000      -0.04656000      -0.31825000 </v>
   <v>      -0.26729000      -0.28418000       0.23619000 </v>
   <v>      -0.03200000       0.37861000       0.23481000 </v>
   <v>      -0.24727000      -0.32785000      -0.28451000 </v>
   <v>       0.15911000      -0.03783000       0.26530000 </v>
   <v>      -0.23180000      -0.00444000      -0.31883000 </v>
   <v>      -0.41528000       0.05666000       0.24259000 </v>
   <v>      -0.49751000       0.13735000      -0.27062000 </v>
   <v>      -0.33025000       0.08801000       0.25820000 </v>
   <v>       0.49156000      -0.08748000      -0.27146000 </v>
   <v>       0.43642000      -0.49721000       0.12241000 </v>
   <v>      -0.47798000      -0.20845000       0.21877000 </v>
   <v>       0.23472000      -0.09867000       0.26025000 </v>
   <v>       0.01790000      -0.13187000      -0.33062000 </v>
   <v>      -0.10736000       0.40472000      -0.29592000 </v>
   <v>       0.36296000       0.29285000       0.22400000 </v>
   <v>       0.10101000      -0.36290000       0.25423000 </v>
   <v>      -0.23777000       0.08046000      -0.33536000 </v>
   <v>      -0.42927000      -0.21269000       0.25095000 </v>
   <v>      -0.30471000      -0.40072000      -0.29725000 </v>
   <v>      -0.02225000       0.43589000      -0.31083000 </v>
   <v>       0.05058000       0.10393000      -0.35146000 </v>
   <v>      -0.09445000      -0.37027000       0.27214000 </v>
   <v>      -0.41556000       0.15249000      -0.32147000 </v>
   <v>      -0.00320000       0.44080000       0.26248000 </v>
   <v>      -0.49978000       0.11494000      -0.30639000 </v>
   <v>      -0.22771000       0.29233000      -0.33313000 </v>
   <v>      -0.13672000      -0.27404000      -0.34418000 </v>
   <v>      -0.37472000       0.47197000       0.23401000 </v>
   <v>      -0.19962000      -0.01449000       0.31139000 </v>
   <v>       0.20853000       0.25261000      -0.33797000 </v>
   <v>       0.43553000       0.35035000       0.23154000 </v>
   <v>       0.32164000      -0.37200000      -0.30175000 </v>
   <v>       0.29195000       0.28250000      -0.32507000 </v>
   <v>       0.35735000       0.20898000      -0.32577000 </v>
   <v>      -0.28999000      -0.09707000      -0.35881000 </v>
   <v>      -0.47895000      -0.42242000       0.23302000 </v>
   <v>      -0.28334000       0.22883000      -0.35200000 </v>
   <v>       0.26731000       0.30048000       0.28353000 </v>
   <v>      -0.05130000      -0.24720000      -0.36222000 </v>
   <v>      -0.02127000      -0.41067000       0.29187000 </v>
   <v>       0.34456000      -0.29390000      -0.32550000 </v>
   <v>      -0.48770000      -0.21092000       0.27901000 </v>
   <v>       0.25480000      -0.41919000      -0.32121000 </v>
   <v>       0.08206000       0.17507000      -0.37438000 </v>
   <v>      -0.19309000       0.37108000       0.30435000 </v>
   <v>       0.02910000      -0.39763000      -0.35541000 </v>
   <v>       0.31117000      -0.15199000       0.31014000 </v>
   <v>      -0.40773000       0.47896000      -0.31738000 </v>
   <v>      -0.45129000      -0.49845000       0.25385000 </v>
   <v>       0.21909000       0.30466000       0.31572000 </v>
   <v>      -0.01154000      -0.35362000       0.32343000 </v>
   <v>       0.09986000      -0.46945000      -0.34814000 </v>
   <v>      -0.18250000      -0.02759000       0.34809000 </v>
   <v>       0.14860000       0.12266000      -0.39427000 </v>
   <v>      -0.08502000      -0.22403000      -0.39538000 </v>
   <v>      -0.03256000       0.06514000       0.35591000 </v>
   <v>      -0.49495000      -0.49629000      -0.30625000 </v>
   <v>      -0.33911000      -0.13881000      -0.38815000 </v>
   <v>       0.09576000       0.15558000       0.35085000 </v>
   <v>      -0.48296000       0.18785000       0.31640000 </v>
   <v>      -0.32065000       0.26528000      -0.38438000 </v>
   <v>       0.38257000      -0.17499000      -0.37113000 </v>
   <v>      -0.26998000      -0.23875000       0.34425000 </v>
   <v>      -0.07726000      -0.14757000       0.36542000 </v>
   <v>      -0.25137000       0.39568000       0.33308000 </v>
   <v>      -0.27447000      -0.00371000       0.36256000 </v>
   <v>       0.05877000       0.08709000       0.37089000 </v>
   <v>       0.47639000      -0.16462000      -0.37349000 </v>
   <v>       0.33544000      -0.10382000      -0.39317000 </v>
   <v>       0.37596000      -0.19297000       0.33566000 </v>
   <v>       0.09237000       0.48765000      -0.38023000 </v>
   <v>      -0.40248000       0.49718000      -0.35677000 </v>
   <v>      -0.27431000       0.48882000       0.32593000 </v>
   <v>      -0.28754000      -0.33396000      -0.39875000 </v>
   <v>      -0.33047000      -0.07759000      -0.41592000 </v>
   <v>      -0.32229000      -0.31910000       0.34918000 </v>
   <v>       0.32589000       0.37238000      -0.38017000 </v>
   <v>       0.28033000       0.34490000       0.34086000 </v>
   <v>       0.24744000       0.00821000      -0.42040000 </v>
   <v>      -0.00169000       0.18916000      -0.43026000 </v>
   <v>      -0.02486000      -0.22573000       0.38147000 </v>
   <v>      -0.43330000       0.30180000       0.34739000 </v>
   <v>      -0.49735000       0.23419000       0.34661000 </v>
   <v>       0.43215000      -0.12412000       0.34879000 </v>
   <v>       0.05799000      -0.19628000       0.39679000 </v>
   <v>       0.49538000      -0.49335000       0.31797000 </v>
   <v>      -0.42978000      -0.00459000       0.38053000 </v>
   <v>      -0.32349000      -0.41219000      -0.41183000 </v>
   <v>       0.17303000      -0.05678000       0.39875000 </v>
   <v>      -0.24315000      -0.46596000      -0.41170000 </v>
   <v>       0.35411000      -0.29383000      -0.41405000 </v>
   <v>       0.41471000      -0.38367000       0.34177000 </v>
   <v>      -0.44943000       0.09683000       0.38107000 </v>
   <v>      -0.11361000       0.39392000       0.38499000 </v>
   <v>       0.32167000       0.05584000      -0.43770000 </v>
   <v>       0.22252000      -0.05757000      -0.45014000 </v>
   <v>      -0.09037000       0.38245000      -0.43942000 </v>
   <v>      -0.06388000       0.22933000      -0.45640000 </v>
   <v>       0.27085000      -0.16247000       0.39308000 </v>
   <v>      -0.33009000      -0.32711000       0.38585000 </v>
   <v>      -0.09955000       0.48047000      -0.43068000 </v>
   <v>       0.35519000       0.40817000      -0.41420000 </v>
   <v>      -0.06581000      -0.23714000      -0.46292000 </v>
   <v>      -0.37342000       0.28910000      -0.44349000 </v>
   <v>       0.09773000       0.19482000       0.42028000 </v>
   <v>       0.20172000      -0.13879000       0.41614000 </v>
   <v>      -0.12348000      -0.07074000      -0.47895000 </v>
   <v>       0.02616000      -0.23109000      -0.47121000 </v>
   <v>      -0.15315000       0.07562000      -0.47906000 </v>
   <v>       0.43977000      -0.47608000       0.34624000 </v>
   <v>      -0.19440000      -0.00842000      -0.47912000 </v>
   <v>      -0.42442000       0.21269000      -0.45529000 </v>
   <v>      -0.44572000       0.35642000      -0.43989000 </v>
   <v>       0.33994000      -0.49691000      -0.42043000 </v>
   <v>       0.01498000       0.37995000       0.41768000 </v>
   <v>      -0.42731000      -0.03151000       0.41790000 </v>
   <v>       0.34331000      -0.35319000      -0.44573000 </v>
   <v>      -0.09108000      -0.28533000       0.42978000 </v>
   <v>      -0.07026000       0.42953000       0.41537000 </v>
   <v>      -0.00934000       0.23704000      -0.48773000 </v>
   <v>      -0.06240000      -0.47516000      -0.45958000 </v>
   <v>       0.22862000      -0.24958000      -0.47644000 </v>
   <v>       0.18196000      -0.16955000      -0.48616000 </v>
   <v>      -0.10642000      -0.28533000      -0.49289000 </v>
   <v>       0.46377000       0.09821000      -0.47038000 </v>
   <v>      -0.37899000      -0.37371000      -0.47265000 </v>
   <v>       0.09640000       0.25780000       0.45176000 </v>
   <v>       0.33128000       0.35671000      -0.47427000 </v>
   <v>      -0.48567000       0.02735000      -0.48829000 </v>
   <v>      -0.20003000       0.32913000       0.44902000 </v>
   <v>      -0.31002000      -0.04006000       0.48934000 </v>
   <v>      -0.11921000      -0.42329000       0.44339000 </v>
   <v>       0.48781000       0.46820000       0.40416000 </v>
   <v>      -0.14335000      -0.33661000       0.45400000 </v>
   <v>      -0.29898000       0.30456000       0.49766000 </v>
   <v>       0.42405000      -0.35860000      -0.46887000 </v>
   <v>       0.40860000       0.14073000      -0.49560000 </v>
   <v>      -0.28640000       0.29438000       0.45994000 </v>
   <v>      -0.41286000       0.38426000       0.44298000 </v>
   <v>       0.18085000       0.27739000       0.46630000 </v>
   <v>       0.20800000      -0.15267000       0.47640000 </v>
   <v>      -0.44645000      -0.34300000      -0.49815000 </v>
   <v>      -0.42898000      -0.15552000       0.48466000 </v>
   <v>      -0.41140000      -0.06490000       0.47903000 </v>
   <v>       0.32093000       0.31613000       0.48946000 </v>
   <v>       0.49854000       0.44079000       0.44093000 </v>
   <v>       0.38146000       0.35944000       0.46429000 </v>
   <v>      -0.45653000      -0.41633000       0.47669000 </v>
  </varray>
 </structure>
 <varray name="primitive_index" >
  <v type="int" >        1 </v>
  <v type="int" >       24 </v>
  <v type="int" >       41 </v>
  <v type="int" >       60 </v>
  <v type="int" >       13 </v>
  <v type="int" >        5 </v>
  <v type="int" >       14 </v>
  <v type="int" >       37 </v>
  <v type="int" >        6 </v>
  <v type="int" >       20 </v>
  <v type="int" >       43 </v>
  <v type="int" >       62 </v>
  <v type="int" >       26 </v>
  <v type="int" >        2 </v>
  <v type="int" >       17 </v>
  <v type="int" >       33 </v>
  <v type="int" >       49 </v>
  <v type="int" >        3 </v>
  <v type="int" >       55 </v>
  <v type="int" >       29 </v>
  <v type="int" >        9 </v>
  <v type="int" >       28 </v>
  <v type="int" >       44 </v>
  <v type="int" >       10 </v>
  <v type="int" >       76 </v>
  <v type="int" >       45 </v>
  <v type="int" >       12 </v>
  <v type="int" >       31 </v>
  <v type="int" >       47 </v>
  <v type="int" >       22 </v>
  <v type="int" >       56 </v>
  <v type="int" >       11 </v>
  <v type="int" >      157 </v>
  <v type="int" >       30 </v>
  <v type="int" >        8 </v>
  <v type="int" >       57 </v>
  <v type="int" >       46 </v>
  <v type="int" >       58 </v>
  <v type="int" >        7 </v>
  <v type="int" >      230 </v>
  <v type="int" >       39 </v>
  <v type="int" >      257 </v>
  <v type="int" >      112 </v>
  <v type="int" >      180 </v>
  <v type="int" >       16 </v>
  <v type="int" >       32 </v>
  <v type="int" >      178 </v>
  <v type="int" >        4 </v>
  <v type="int" >       50 </v>
  <v type="int" >       35 </v>
  <v type="int" >      158 </v>
  <v type="int" >      258 </v>
  <v type="int" >      126 </v>
  <v type="int" >       19 </v>
  <v type="int" >       36 </v>
  <v type="int" >       25 </v>
  <v type="int" >       40 </v>
  <v type="int" >       21 </v>
  <v type="int" >       15 </v>
  <v type="int" >       63 </v>
  <v type="int" >       72 </v>
  <v type="int" >       86 </v>
  <v type="int" >      272 </v>
  <v type="int" >       61 </v>
  <v type="int" >       51 </v>
  <v type="int" >      229 </v>
  <v type="int" >       27 </v>
  <v type="int" >       52 </v>
  <v type="int" >       87 </v>
  <v type="int" >       42 </v>
  <v type="int" >       59 </v>
  <v type="int" >      150 </v>
  <v type="int" >      273 </v>
  <v type="int" >      177 </v>
  <v type="int" >      144 </v>
  <v type="int" >       18 </v>
  <v type="int" >       34 </v>
  <v type="int" >      149 </v>
  <v type="int" >      133 </v>
  <v type="int" >      187 </v>
  <v type="int" >      151 </v>
  <v type="int" >      105 </v>
  <v type="int" >      179 </v>
  <v type="int" >       38 </v>
  <v type="int" >      271 </v>
  <v type="int" >      266 </v>
  <v type="int" >      274 </v>
  <v type="int" >       23 </v>
  <v type="int" >      101 </v>
  <v type="int" >       54 </v>
  <v type="int" >       53 </v>
  <v type="int" >      265 </v>
  <v type="int" >      134 </v>
  <v type="int" >       73 </v>
  <v type="int" >      130 </v>
  <v type="int" >      269 </v>
  <v type="int" >      215 </v>
  <v type="int" >      208 </v>
  <v type="int" >      138 </v>
  <v type="int" >       69 </v>
  <v type="int" >       48 </v>
  <v type="int" >      245 </v>
  <v type="int" >      268 </v>
  <v type="int" >      172 </v>
  <v type="int" >       83 </v>
  <v type="int" >      190 </v>
  <v type="int" >      252 </v>
  <v type="int" >       91 </v>
  <v type="int" >      216 </v>
  <v type="int" >      171 </v>
  <v type="int" >      141 </v>
  <v type="int" >      143 </v>
  <v type="int" >      111 </v>
  <v type="int" >      228 </v>
  <v type="int" >      207 </v>
  <v type="int" >       66 </v>
  <v type="int" >      240 </v>
  <v type="int" >      142 </v>
  <v type="int" >       68 </v>
  <v type="int" >      241 </v>
  <v type="int" >      188 </v>
  <v type="int" >      152 </v>
  <v type="int" >      262 </v>
  <v type="int" >      231 </v>
  <v type="int" >      120 </v>
  <v type="int" >      132 </v>
  <v type="int" >      137 </v>
  <v type="int" >      131 </v>
  <v type="int" >      117 </v>
  <v type="int" >      261 </v>
  <v type="int" >      118 </v>
  <v type="int" >      251 </v>
  <v type="int" >      211 </v>
  <v type="int" >      123 </v>
  <v type="int" >      227 </v>
  <v type="int" >       64 </v>
  <v type="int" >      135 </v>
  <v type="int" >      128 </v>
  <v type="int" >      270 </v>
  <v type="int" >       92 </v>
  <v type="int" >      113 </v>
  <v type="int" >      246 </v>
  <v type="int" >      242 </v>
  <v type="int" >       65 </v>
  <v type="int" >      239 </v>
  <v type="int" >      189 </v>
  <v type="int" >      139 </v>
  <v type="int" >      196 </v>
  <v type="int" >      212 </v>
  <v type="int" >      267 </v>
  <v type="int" >      103 </v>
  <v type="int" >      156 </v>
  <v type="int" >      255 </v>
  <v type="int" >      237 </v>
  <v type="int" >      199 </v>
  <v type="int" >      193 </v>
  <v type="int" >      232 </v>
  <v type="int" >      121 </v>
  <v type="int" >       94 </v>
  <v type="int" >      194 </v>
  <v type="int" >      209 </v>
  <v type="int" >      238 </v>
  <v type="int" >       75 </v>
  <v type="int" >      205 </v>
  <v type="int" >      125 </v>
  <v type="int" >       95 </v>
  <v type="int" >      247 </v>
  <v type="int" >      136 </v>
  <v type="int" >      248 </v>
  <v type="int" >       67 </v>
  <v type="int" >      162 </v>
  <v type="int" >      148 </v>
  <v type="int" >      203 </v>
  <v type="int" >       77 </v>
  <v type="int" >      116 </v>
  <v type="int" >      100 </v>
  <v type="int" >      195 </v>
  <v type="int" >       71 </v>
  <v type="int" >       97 </v>
  <v type="int" >      140 </v>
  <v type="int" >      256 </v>
  <v type="int" >      213 </v>
  <v type="int" >      159 </v>
  <v type="int" >      102 </v>
  <v type="int" >      214 </v>
  <v type="int" >      236 </v>
  <v type="int" >      155 </v>
  <v type="int" >       81 </v>
  <v type="int" >      217 </v>
  <v type="int" >      219 </v>
  <v type="int" >       78 </v>
  <v type="int" >      200 </v>
  <v type="int" >      104 </v>
  <v type="int" >      168 </v>
  <v type="int" >      167 </v>
  <v type="int" >       99 </v>
  <v type="int" >      147 </v>
  <v type="int" >      160 </v>
  <v type="int" >      161 </v>
  <v type="int" >      163 </v>
  <v type="int" >      210 </v>
  <v type="int" >      106 </v>
  <v type="int" >      186 </v>
  <v type="int" >      206 </v>
  <v type="int" >      124 </v>
  <v type="int" >      234 </v>
  <v type="int" >      107 </v>
  <v type="int" >      235 </v>
  <v type="int" >      115 </v>
  <v type="int" >      204 </v>
  <v type="int" >      220 </v>
  <v type="int" >      169 </v>
  <v type="int" >      119 </v>
  <v type="int" >       79 </v>
  <v type="int" >      176 </v>
  <v type="int" >      164 </v>
  <v type="int" >      260 </v>
  <v type="int" >      170 </v>
  <v type="int" >      243 </v>
  <v type="int" >      165 </v>
  <v type="int" >      254 </v>
  <v type="int" >      253 </v>
  <v type="int" >      226 </v>
  <v type="int" >      114 </v>
  <v type="int" >      175 </v>
  <v type="int" >      218 </v>
  <v type="int" >      110 </v>
  <v type="int" >       90 </v>
  <v type="int" >       98 </v>
  <v type="int" >      109 </v>
  <v type="int" >      221 </v>
  <v type="int" >       85 </v>
  <v type="int" >      198 </v>
  <v type="int" >      201 </v>
  <v type="int" >      197 </v>
  <v type="int" >       82 </v>
  <v type="int" >       96 </v>
  <v type="int" >      223 </v>
  <v type="int" >      224 </v>
  <v type="int" >      185 </v>
  <v type="int" >      166 </v>
  <v type="int" >      244 </v>
  <v type="int" >      127 </v>
  <v type="int" >      184 </v>
  <v type="int" >       80 </v>
  <v type="int" >      233 </v>
  <v type="int" >      225 </v>
  <v type="int" >      153 </v>
  <v type="int" >       74 </v>
  <v type="int" >      202 </v>
  <v type="int" >       84 </v>
  <v type="int" >      249 </v>
  <v type="int" >      108 </v>
  <v type="int" >      182 </v>
  <v type="int" >      174 </v>
  <v type="int" >      146 </v>
  <v type="int" >      191 </v>
  <v type="int" >      183 </v>
  <v type="int" >      264 </v>
  <v type="int" >       89 </v>
  <v type="int" >      145 </v>
  <v type="int" >      259 </v>
  <v type="int" >      173 </v>
  <v type="int" >       70 </v>
  <v type="int" >      263 </v>
  <v type="int" >      222 </v>
  <v type="int" >      154 </v>
  <v type="int" >      122 </v>
  <v type="int" >      192 </v>
  <v type="int" >       93 </v>
  <v type="int" >       88 </v>
  <v type="int" >      129 </v>
  <v type="int" >      181 </v>
  <v type="int" >      250 </v>
 </varray>
 <kpoints>
  <generation param="Gamma">
   <v type="int" name="divisions">       1        1        1 </v>
   <v name="usershift">      0.00000000       0.00000000       0.00000000 </v>
   <v name="genvec1">      1.00000000       0.00000000       0.00000000 </v>
   <v name="genvec2">      0.00000000       1.00000000       0.00000000 </v>
   <v name="genvec3">      0.00000000       0.00000000       1.00000000 </v>
   <v name="shift">      0.00000000       0.00000000       0.00000000 </v>
  </generation>
  <varray name="kpointlist" >
   <v>       0.00000000       0.00000000       0.00000000 </v>
  </varray>
  <varray name="weights" >
   <v>       1.00000000 </v>
  </varray>
 </kpoints>
 <parameters>
  <separator name="general" >
   <i type="string" name="SYSTEM">bader</i>
   <i type="logical" name="LCOMPAT"> F  </i>
  </separator>
  <separator name="electronic" >
   <i type="string" name="PREC">normal</i>
   <i name="ENMAX">    450.00000000</i>
   <i name="ENAUG">    605.39200000</i>
   <i name="EDIFF">      0.00000100</i>
   <i type="int" name="IALGO">    48</i>
   <i type="int" name="IWAVPR">    10</i>
   <i type="int" name="NBANDS">   912</i>
   <i name="NELECT">   1264.00000000</i>
   <i type="int" name="TURBO">     0</i>
   <i type="int" name="IRESTART">     0</i>
   <i type="int" name="NREBOOT">     0</i>
   <i type="int" name="NMIN">     0</i>
   <i name="EREF">      0.00000000</i>
   <separator name="electronic smearing" >
    <i type="int" name="ISMEAR">     1</i>
    <i name="SIGMA">      0.20000000</i>
    <i name="KSPACING">      0.50000000</i>
    <i type="logical" name="KGAMMA"> T  </i>
   </separator>
   <separator name="electronic projectors" >
    <i type="logical" name="LREAL"> T  </i>
    <v name="ROPT">     -0.00050000     -0.00050000     -0.00050000     -0.00050000</v>
    <i type="int" name="LMAXPAW">  -100</i>
    <i type="int" name="LMAXMIX">     2</i>
    <i type="logical" name="NLSPLINE"> F  </i>
   </separator>
   <separator name="electronic startup" >
    <i type="int" name="ISTART">     0</i>
    <i type="int" name="ICHARG">     2</i>
    <i type="int" name="INIWAV">     1</i>
   </separator>
   <separator name="electronic spin" >
    <i type="int" name="ISPIN">     2</i>
    <i type="logical" name="LNONCOLLINEAR"> F  </i>
    <v name="MAGMOM">      1.00000000      1.00000000      1.00000000      1.00000000      1.00000000      1.00000000      1.00000000      1.00000000      1.00000000      1.00000000      1.00000000      1.00000000      1.00000000      1.00000000      1.00000000      1.00000000      1.00000000      1.00000000      1.00000000      1.00000000
      1.00000000      1.00000000      1.00000000      1.00000000      1.00000000      1.00000000      1.00000000      1.00000000      1.00000000      1.00000000      1.00000000      1.00000000      1.00000000      1.00000000      1.00000000      1.00000000      1.00000000      1.00000000      1.00000000      1.00000000
      1.00000000      1.00000000      1.00000000      1.00000000      1.00000000      1.00000000      1.00000000      1.00000000      1.00000000      1.00000000      1.00000000      1.00000000      1.00000000      1.00000000      1.00000000      1.00000000      1.00000000      1.00000000      1.00000000      1.00000000
      1.00000000      1.00000000      1.00000000      1.00000000      1.00000000      1.00000000      1.00000000      1.00000000      1.00000000      1.00000000      1.00000000      1.00000000      1.00000000      1.00000000      1.00000000      1.00000000      1.00000000      1.00000000      1.00000000      1.00000000
      1.00000000      1.00000000      1.00000000      1.00000000      1.00000000      1.00000000      1.00000000      1.00000000      1.00000000      1.00000000      1.00000000      1.00000000      1.00000000      1.00000000      1.00000000      1.00000000      1.00000000      1.00000000      1.00000000      1.00000000
      1.00000000      1.00000000      1.00000000      1.00000000      1.00000000      1.00000000      1.00000000      1.00000000      1.00000000      1.00000000      1.00000000      1.00000000      1.00000000      1.00000000      1.00000000      1.00000000      1.00000000      1.00000000      1.00000000      1.00000000
      1.00000000      1.00000000      1.00000000      1.00000000      1.00000000      1.00000000      1.00000000      1.00000000      1.00000000      1.00000000      1.00000000      1.00000000      1.00000000      1.00000000      1.00000000      1.00000000      1.00000000      1.00000000      1.00000000      1.00000000
      1.00000000      1.00000000      1.00000000      1.00000000      1.00000000      1.00000000      1.00000000      1.00000000      1.00000000      1.00000000      1.00000000      1.00000000      1.00000000      1.00000000      1.00000000      1.00000000      1.00000000      1.00000000      1.00000000      1.00000000
      1.00000000      1.00000000      1.00000000      1.00000000      1.00000000      1.00000000      1.00000000      1.00000000      1.00000000      1.00000000      1.00000000      1.00000000      1.00000000      1.00000000      1.00000000      1.00000000      1.00000000      1.00000000      1.00000000      1.00000000
      1.00000000      1.00000000      1.00000000      1.00000000      1.00000000      1.00000000      1.00000000      1.00000000      1.00000000      1.00000000      1.00000000      1.00000000      1.00000000      1.00000000      1.00000000      1.00000000      1.00000000      1.00000000      1.00000000      1.00000000
      1.00000000      1.00000000      1.00000000      1.00000000      1.00000000      1.00000000      1.00000000      1.00000000      1.00000000      1.00000000      1.00000000      1.00000000      1.00000000      1.00000000      1.00000000      1.00000000      1.00000000      1.00000000      1.00000000      1.00000000
      1.00000000      1.00000000      1.00000000      1.00000000      1.00000000      1.00000000      1.00000000      1.00000000      1.00000000      1.00000000      1.00000000      1.00000000      1.00000000      1.00000000      1.00000000      1.00000000      1.00000000      1.00000000      1.00000000      1.00000000
      1.00000000      1.00000000      1.00000000      1.00000000      1.00000000      1.00000000      1.00000000      1.00000000      1.00000000      1.00000000      1.00000000      1.00000000      1.00000000      1.00000000      1.00000000      1.00000000      1.00000000      1.00000000      1.00000000      1.00000000
      1.00000000      1.00000000      1.00000000      1.00000000      1.00000000      1.00000000      1.00000000      1.00000000      1.00000000      1.00000000      1.00000000      1.00000000      1.00000000      1.00000000</v>
    <i name="NUPDOWN">     -1.00000000</i>
    <i type="logical" name="LSORBIT"> F  </i>
    <v name="SAXIS">      0.00000000      0.00000000      1.00000000</v>
    <i type="logical" name="LSPIRAL"> F  </i>
    <v name="QSPIRAL">      0.00000000      0.00000000      0.00000000</v>
    <i type="logical" name="LZEROZ"> F  </i>
   </separator>
   <separator name="electronic exchange-correlation" >
    <i type="logical" name="LASPH"> F  </i>
    <i type="logical" name="LMETAGGA"> F  </i>
   </separator>
   <separator name="electronic convergence" >
    <i type="int" name="NELM">   200</i>
    <i type="int" name="NELMDL">   -12</i>
    <i type="int" name="NELMIN">     4</i>
    <i name="ENINI">    450.00000000</i>
    <separator name="electronic convergence detail" >
     <i type="logical" name="LDIAG"> T  </i>
     <i type="logical" name="LSUBROT"> F  </i>
     <i name="WEIMIN">      0.00000000</i>
     <i name="EBREAK">      0.00000000</i>
     <i name="DEPER">      0.30000000</i>
     <i type="int" name="NRMM">     4</i>
     <i name="TIME">      0.40000000</i>
    </separator>
   </separator>
   <separator name="electronic mixer" >
    <i name="AMIX">      0.40000000</i>
    <i name="BMIX">      1.00000000</i>
    <i name="AMIN">      0.10000000</i>
    <i name="AMIX_MAG">      1.60000000</i>
    <i name="BMIX_MAG">      1.00000000</i>
    <separator name="electronic mixer details" >
     <i type="int" name="IMIX">     4</i>
     <i type="logical" name="MIXFIRST"> F  </i>
     <i type="int" name="MAXMIX">   -45</i>
     <i name="WC">    100.00000000</i>
     <i type="int" name="INIMIX">     1</i>
     <i type="int" name="MIXPRE">     1</i>
     <i type="int" name="MREMOVE">     5</i>
    </separator>
   </separator>
   <separator name="electronic dipolcorrection" >
    <i type="logical" name="LDIPOL"> F  </i>
    <i type="logical" name="LMONO"> F  </i>
    <i type="int" name="IDIPOL">     0</i>
    <i name="EPSILON">      1.00000000</i>
    <v name="DIPOL">   -100.00000000   -100.00000000   -100.00000000</v>
    <i name="EFIELD">      0.00000000</i>
   </separator>
  </separator>
  <separator name="grids" >
   <i type="int" name="NGX">    54</i>
   <i type="int" name="NGY">    54</i>
   <i type="int" name="NGZ">   140</i>
   <i type="int" name="NGXF">   108</i>
   <i type="int" name="NGYF">   108</i>
   <i type="int" name="NGZF">   280</i>
   <i type="logical" name="ADDGRID"> F  </i>
  </separator>
  <separator name="ionic" >
   <i type="int" name="NSW">     0</i>
   <i type="int" name="IBRION">    -1</i>
   <i type="int" name="MDALGO">     0</i>
   <i type="int" name="ISIF">     2</i>
   <i name="PSTRESS">      0.00000000</i>
   <i name="EDIFFG">     -0.01000000</i>
   <i type="int" name="NFREE">     0</i>
   <i name="POTIM">      0.10000000</i>
   <i name="SMASS">     -3.00000000</i>
   <i name="SCALEE">      1.00000000</i>
  </separator>
  <separator name="ionic md" >
   <i name="TEBEG">      0.00010000</i>
   <i name="TEEND">      0.00010000</i>
   <i type="int" name="NBLOCK">     1</i>
   <i type="int" name="KBLOCK">     1</i>
   <i type="int" name="NPACO">   256</i>
   <i name="APACO">     16.00000000</i>
  </separator>
  <separator name="symmetry" >
   <i type="int" name="ISYM">     0</i>
   <i name="SYMPREC">      0.00001000</i>
  </separator>
  <separator name="dos" >
   <i type="int" name="LORBIT">     0</i>
   <v name="RWIGS">     -1.00000000     -1.00000000     -1.00000000     -1.00000000</v>
   <i type="int" name="NEDOS">   301</i>
   <i name="EMIN">     10.00000000</i>
   <i name="EMAX">    -10.00000000</i>
   <i name="EFERMI">      0.00000000</i>
  </separator>
  <separator name="writing" >
   <i type="int" name="NWRITE">     2</i>
   <i type="logical" name="LWAVE"> F  </i>
   <i type="logical" name="LDOWNSAMPLE"> F  </i>
   <i type="logical" name="LCHARG"> T  </i>
   <i type="logical" name="LPARD"> F  </i>
   <i type="logical" name="LVTOT"> F  </i>
   <i type="logical" name="LVHAR"> F  </i>
   <i type="logical" name="LELF"> F  </i>
   <i type="logical" name="LOPTICS"> F  </i>
   <v name="STM">      0.00000000      0.00000000      0.00000000      0.00000000      0.00000000      0.00000000      0.00000000</v>
  </separator>
  <separator name="performance" >
   <i type="int" name="NPAR">    48</i>
   <i type="int" name="NSIM">     4</i>
   <i type="int" name="NBLK">    -1</i>
   <i type="logical" name="LPLANE"> T  </i>
   <i type="logical" name="LSCALAPACK"> T  </i>
   <i type="logical" name="LSCAAWARE"> F  </i>
   <i type="logical" name="LSCALU"> F  </i>
   <i type="logical" name="LASYNC"> F  </i>
   <i type="logical" name="LORBITALREAL"> F  </i>
  </separator>
  <separator name="miscellaneous" >
   <i type="int" name="IDIOT">     3</i>
   <i type="int" name="ISPECIAL">     0</i>
   <i type="logical" name="LMUSIC"> F  </i>
   <v name="POMASS">     63.54600000    107.86800000     16.00000000      1.00000000</v>
   <v name="DARWINR">      0.00000000      0.00000000      0.00000000      0.00000000</v>
   <v name="DARWINV">      1.00000000      1.00000000      1.00000000      1.00000000</v>
   <i type="logical" name="LCORR"> T  </i>
  </separator>
  <i type="logical" name="GGA_COMPAT"> T  </i>
  <i type="logical" name="LBERRY"> F  </i>
  <i type="int" name="ICORELEVEL">     0</i>
  <i type="logical" name="LDAU"> F  </i>
  <i type="int" name="I_CONSTRAINED_M">     0</i>
  <separator name="electronic exchange-correlation" >
   <i type="string" name="GGA">--</i>
   <i type="int" name="VOSKOWN">     0</i>
   <i type="logical" name="LHFCALC"> F  </i>
   <i type="string" name="PRECFOCK"></i>
   <i type="logical" name="LSYMGRAD"> F  </i>
   <i type="logical" name="LHFONE"> F  </i>
   <i type="logical" name="LRHFCALC"> F  </i>
   <i type="logical" name="LTHOMAS"> F  </i>
   <i type="logical" name="LMODELHF"> F  </i>
   <i name="ENCUT4O">     -1.00000000</i>
   <i type="int" name="EXXOEP">     0</i>
   <i type="int" name="FOURORBIT">     0</i>
   <i name="AEXX">      0.00000000</i>
   <i name="HFALPHA">      0.00000000</i>
   <i name="MCALPHA">      0.00000000</i>
   <i name="ALDAX">      1.00000000</i>
   <i name="AGGAX">      1.00000000</i>
   <i name="ALDAC">      1.00000000</i>
   <i name="AGGAC">      1.00000000</i>
   <i type="int" name="NKREDX">     1</i>
   <i type="int" name="NKREDY">     1</i>
   <i type="int" name="NKREDZ">     1</i>
   <i type="logical" name="SHIFTRED"> F  </i>
   <i type="logical" name="ODDONLY"> F  </i>
   <i type="logical" name="EVENONLY"> F  </i>
   <i type="int" name="LMAXFOCK">     0</i>
   <i type="int" name="NMAXFOCKAE">     0</i>
   <i type="logical" name="LFOCKAEDFT"> F  </i>
   <i name="HFSCREEN">      0.00000000</i>
   <i name="HFSCREENC">      0.00000000</i>
   <i type="int" name="NBANDSGWLOW">     0</i>
  </separator>
  <separator name="vdW DFT" >
   <i type="logical" name="LUSE_VDW"> F  </i>
   <i name="Zab_VDW">     -0.84910000</i>
   <i name="PARAM1">      0.12340000</i>
   <i name="PARAM2">      1.00000000</i>
   <i name="PARAM3">      0.00000000</i>
  </separator>
  <separator name="model GW" >
   <i type="int" name="MODEL_GW">     0</i>
   <i name="MODEL_EPS0">      6.04782982</i>
   <i name="MODEL_ALPHA">      1.00000000</i>
  </separator>
  <separator name="linear response parameters" >
   <i type="logical" name="LEPSILON"> F  </i>
   <i type="logical" name="LRPA"> F  </i>
   <i type="logical" name="LNABLA"> F  </i>
   <i type="logical" name="LVEL"> F  </i>
   <i type="int" name="KINTER">     0</i>
   <i name="CSHIFT">      0.10000000</i>
   <i name="OMEGAMAX">     -1.00000000</i>
   <i name="DEG_THRESHOLD">      0.00200000</i>
   <i name="RTIME">     -0.10000000</i>
   <i name="WPLASMAI">      0.00000000</i>
   <v name="DFIELD">      0.00000000      0.00000000      0.00000000</v>
   <v name="WPLASMA">      0.00000000      0.00000000      0.00000000      0.00000000      0.00000000      0.00000000      0.00000000      0.00000000      0.00000000</v>
  </separator>
  <separator name="orbital magnetization" >
   <i type="logical" name="NUCIND"> F  </i>
   <v name="MAGPOS">      0.00000000      0.00000000      0.00000000</v>
   <i type="logical" name="LNICSALL"> T  </i>
   <i type="logical" name="ORBITALMAG"> F  </i>
   <i type="logical" name="LMAGBLOCH"> F  </i>
   <i type="logical" name="LCHIMAG"> F  </i>
   <i type="logical" name="LGAUGE"> T  </i>
   <i type="int" name="MAGATOM">     0</i>
   <v name="MAGDIPOL">      0.00000000      0.00000000      0.00000000</v>
   <v name="AVECCONST">      0.00000000      0.00000000      0.00000000</v>
  </separator>
  <separator name="response functions" >
   <i type="logical" name="LADDER"> F  </i>
   <i type="logical" name="LRPAFORCE"> F  </i>
   <i type="logical" name="LFXC"> F  </i>
   <i type="logical" name="LHARTREE"> T  </i>
   <i type="int" name="IBSE">     0</i>
   <v type="int" name="KPOINT">    -1     0     0     0</v>
   <i type="logical" name="LTCTE"> F  </i>
   <i type="logical" name="LTETE"> F  </i>
   <i type="logical" name="LTRIPLET"> F  </i>
   <i type="logical" name="LFXCEPS"> F  </i>
   <i type="logical" name="LFXHEG"> F  </i>
   <i type="int" name="NATURALO">     2</i>
   <i type="logical" name="L2ORDER"> F  </i>
   <i type="logical" name="LMP2LT"> F  </i>
   <i type="logical" name="LUSEW"> F  </i>
   <i name="ENCUTGW">     -2.00000000</i>
   <i name="ENCUTGWSOFT">     -2.00000000</i>
   <i name="ENCUTLF">     -1.00000000</i>
   <i type="int" name="LMAXMP2">    -1</i>
   <i name="SCISSOR">      0.00000000</i>
   <i type="int" name="NOMEGA">     0</i>
   <i type="int" name="NOMEGAR">     0</i>
   <i type="int" name="NBANDSGW">    -1</i>
   <i type="int" name="NBANDSO">    -1</i>
   <i type="int" name="NBANDSV">    -1</i>
   <i type="int" name="NELM">   200</i>
   <i type="int" name="NELMHF">     1</i>
   <i type="int" name="DIM">     3</i>
   <i type="int" name="ANTIRES">     0</i>
   <i name="OMEGAMAX">    -30.00000000</i>
   <i name="OMEGAMIN">    -30.00000000</i>
   <i name="OMEGATL">   -200.00000000</i>
   <i type="int" name="OMEGAGRID">   140</i>
   <i name="CSHIFT">     -0.10000000</i>
   <i type="logical" name="SELFENERGY"> F  </i>
   <i type="logical" name="LSPECTRAL"> F  </i>
   <i type="logical" name="LSPECTRALGW"> F  </i>
   <i type="logical" name="LSINGLES"> F  </i>
   <i type="logical" name="LFERMIGW"> F  </i>
   <i type="logical" name="ODDONLYGW"> F  </i>
   <i type="logical" name="EVENONLYGW"> F  </i>
   <i type="int" name="NKREDLFX">     1</i>
   <i type="int" name="NKREDLFY">     1</i>
   <i type="int" name="NKREDLFZ">     1</i>
   <i type="int" name="MAXMEM">  2800</i>
   <i type="int" name="TELESCOPE">     0</i>
   <i type="int" name="TAUPAR">     1</i>
   <i type="int" name="OMEGAPAR">    -1</i>
   <i name="LAMBDA">      1.00000000</i>
  </separator>
  <separator name="External order field" >
   <i name="OFIELD_KAPPA">      0.00000000</i>
   <v name="OFIELD_K">      0.00000000      0.00000000      0.00000000</v>
   <i name="OFIELD_Q6_NEAR">      0.00000000</i>
   <i name="OFIELD_Q6_FAR">      0.00000000</i>
   <i name="OFIELD_A">      0.00000000</i>
  </separator>
 </parameters>
 <atominfo>
  <atoms>     274 </atoms>
  <types>       4 </types>
  <array name="atoms" >
   <dimension dim="1">ion</dimension>
   <field type="string">element</field>
   <field type="int">atomtype</field>
   <set>
    <rc><c>Cu</c><c>   1</c></rc>
    <rc><c>Cu</c><c>   1</c></rc>
    <rc><c>Cu</c><c>   1</c></rc>
    <rc><c>Cu</c><c>   1</c></rc>
    <rc><c>Cu</c><c>   1</c></rc>
    <rc><c>Cu</c><c>   1</c></rc>
    <rc><c>Cu</c><c>   1</c></rc>
    <rc><c>Cu</c><c>   1</c></rc>
    <rc><c>Cu</c><c>   1</c></rc>
    <rc><c>Cu</c><c>   1</c></rc>
    <rc><c>Cu</c><c>   1</c></rc>
    <rc><c>Cu</c><c>   1</c></rc>
    <rc><c>Cu</c><c>   1</c></rc>
    <rc><c>Cu</c><c>   1</c></rc>
    <rc><c>Cu</c><c>   1</c></rc>
    <rc><c>Cu</c><c>   1</c></rc>
    <rc><c>Cu</c><c>   1</c></rc>
    <rc><c>Cu</c><c>   1</c></rc>
    <rc><c>Cu</c><c>   1</c></rc>
    <rc><c>Cu</c><c>   1</c></rc>
    <rc><c>Cu</c><c>   1</c></rc>
    <rc><c>Cu</c><c>   1</c></rc>
    <rc><c>Cu</c><c>   1</c></rc>
    <rc><c>Cu</c><c>   1</c></rc>
    <rc><c>Cu</c><c>   1</c></rc>
    <rc><c>Cu</c><c>   1</c></rc>
    <rc><c>Cu</c><c>   1</c></rc>
    <rc><c>Cu</c><c>   1</c></rc>
    <rc><c>Cu</c><c>   1</c></rc>
    <rc><c>Cu</c><c>   1</c></rc>
    <rc><c>Cu</c><c>   1</c></rc>
    <rc><c>Cu</c><c>   1</c></rc>
    <rc><c>Cu</c><c>   1</c></rc>
    <rc><c>Cu</c><c>   1</c></rc>
    <rc><c>Cu</c><c>   1</c></rc>
    <rc><c>Cu</c><c>   1</c></rc>
    <rc><c>Cu</c><c>   1</c></rc>
    <rc><c>Cu</c><c>   1</c></rc>
    <rc><c>Cu</c><c>   1</c></rc>
    <rc><c>Cu</c><c>   1</c></rc>
    <rc><c>Cu</c><c>   1</c></rc>
    <rc><c>Cu</c><c>   1</c></rc>
    <rc><c>Cu</c><c>   1</c></rc>
    <rc><c>Cu</c><c>   1</c></rc>
    <rc><c>Cu</c><c>   1</c></rc>
    <rc><c>Cu</c><c>   1</c></rc>
    <rc><c>Cu</c><c>   1</c></rc>
    <rc><c>Cu</c><c>   1</c></rc>
    <rc><c>Cu</c><c>   1</c></rc>
    <rc><c>Cu</c><c>   1</c></rc>
    <rc><c>Cu</c><c>   1</c></rc>
    <rc><c>Cu</c><c>   1</c></rc>
    <rc><c>Cu</c><c>   1</c></rc>
    <rc><c>Cu</c><c>   1</c></rc>
    <rc><c>Cu</c><c>   1</c></rc>
    <rc><c>Cu</c><c>   1</c></rc>
    <rc><c>Cu</c><c>   1</c></rc>
    <rc><c>Cu</c><c>   1</c></rc>
    <rc><c>Cu</c><c>   1</c></rc>
    <rc><c>Cu</c><c>   1</c></rc>
    <rc><c>Cu</c><c>   1</c></rc>
    <rc><c>Cu</c><c>   1</c></rc>
    <rc><c>Ag</c><c>   2</c></rc>
    <rc><c>Ag</c><c>   2</c></rc>
    <rc><c>O </c><c>   3</c></rc>
    <rc><c>O </c><c>   3</c></rc>
    <rc><c>O </c><c>   3</c></rc>
    <rc><c>O </c><c>   3</c></rc>
    <rc><c>O </c><c>   3</c></rc>
    <rc><c>O </c><c>   3</c></rc>
    <rc><c>O </c><c>   3</c></rc>
    <rc><c>O </c><c>   3</c></rc>
    <rc><c>O </c><c>   3</c></rc>
    <rc><c>O </c><c>   3</c></rc>
    <rc><c>O </c><c>   3</c></rc>
    <rc><c>O </c><c>   3</c></rc>
    <rc><c>O </c><c>   3</c></rc>
    <rc><c>O </c><c>   3</c></rc>
    <rc><c>O </c><c>   3</c></rc>
    <rc><c>O </c><c>   3</c></rc>
    <rc><c>O </c><c>   3</c></rc>
    <rc><c>O </c><c>   3</c></rc>
    <rc><c>O </c><c>   3</c></rc>
    <rc><c>O </c><c>   3</c></rc>
    <rc><c>O </c><c>   3</c></rc>
    <rc><c>O </c><c>   3</c></rc>
    <rc><c>O </c><c>   3</c></rc>
    <rc><c>O </c><c>   3</c></rc>
    <rc><c>O </c><c>   3</c></rc>
    <rc><c>O </c><c>   3</c></rc>
    <rc><c>O </c><c>   3</c></rc>
    <rc><c>O </c><c>   3</c></rc>
    <rc><c>O </c><c>   3</c></rc>
    <rc><c>O </c><c>   3</c></rc>
    <rc><c>O </c><c>   3</c></rc>
    <rc><c>O </c><c>   3</c></rc>
    <rc><c>O </c><c>   3</c></rc>
    <rc><c>O </c><c>   3</c></rc>
    <rc><c>O </c><c>   3</c></rc>
    <rc><c>O </c><c>   3</c></rc>
    <rc><c>O </c><c>   3</c></rc>
    <rc><c>O </c><c>   3</c></rc>
    <rc><c>O </c><c>   3</c></rc>
    <rc><c>O </c><c>   3</c></rc>
    <rc><c>O </c><c>   3</c></rc>
    <rc><c>O </c><c>   3</c></rc>
    <rc><c>O </c><c>   3</c></rc>
    <rc><c>O </c><c>   3</c></rc>
    <rc><c>O </c><c>   3</c></rc>
    <rc><c>O </c><c>   3</c></rc>
    <rc><c>O </c><c>   3</c></rc>
    <rc><c>O </c><c>   3</c></rc>
    <rc><c>O </c><c>   3</c></rc>
    <rc><c>O </c><c>   3</c></rc>
    <rc><c>O </c><c>   3</c></rc>
    <rc><c>O </c><c>   3</c></rc>
    <rc><c>O </c><c>   3</c></rc>
    <rc><c>O </c><c>   3</c></rc>
    <rc><c>O </c><c>   3</c></rc>
    <rc><c>O </c><c>   3</c></rc>
    <rc><c>O </c><c>   3</c></rc>
    <rc><c>O </c><c>   3</c></rc>
    <rc><c>O </c><c>   3</c></rc>
    <rc><c>O </c><c>   3</c></rc>
    <rc><c>O </c><c>   3</c></rc>
    <rc><c>O </c><c>   3</c></rc>
    <rc><c>O </c><c>   3</c></rc>
    <rc><c>O </c><c>   3</c></rc>
    <rc><c>O </c><c>   3</c></rc>
    <rc><c>O </c><c>   3</c></rc>
    <rc><c>O </c><c>   3</c></rc>
    <rc><c>O </c><c>   3</c></rc>
    <rc><c>O </c><c>   3</c></rc>
    <rc><c>O </c><c>   3</c></rc>
    <rc><c>H </c><c>   4</c></rc>
    <rc><c>H </c><c>   4</c></rc>
    <rc><c>H </c><c>   4</c></rc>
    <rc><c>H </c><c>   4</c></rc>
    <rc><c>H </c><c>   4</c></rc>
    <rc><c>H </c><c>   4</c></rc>
    <rc><c>H </c><c>   4</c></rc>
    <rc><c>H </c><c>   4</c></rc>
    <rc><c>H </c><c>   4</c></rc>
    <rc><c>H </c><c>   4</c></rc>
    <rc><c>H </c><c>   4</c></rc>
    <rc><c>H </c><c>   4</c></rc>
    <rc><c>H </c><c>   4</c></rc>
    <rc><c>H </c><c>   4</c></rc>
    <rc><c>H </c><c>   4</c></rc>
    <rc><c>H </c><c>   4</c></rc>
    <rc><c>H </c><c>   4</c></rc>
    <rc><c>H </c><c>   4</c></rc>
    <rc><c>H </c><c>   4</c></rc>
    <rc><c>H </c><c>   4</c></rc>
    <rc><c>H </c><c>   4</c></rc>
    <rc><c>H </c><c>   4</c></rc>
    <rc><c>H </c><c>   4</c></rc>
    <rc><c>H </c><c>   4</c></rc>
    <rc><c>H </c><c>   4</c></rc>
    <rc><c>H </c><c>   4</c></rc>
    <rc><c>H </c><c>   4</c></rc>
    <rc><c>H </c><c>   4</c></rc>
    <rc><c>H </c><c>   4</c></rc>
    <rc><c>H </c><c>   4</c></rc>
    <rc><c>H </c><c>   4</c></rc>
    <rc><c>H </c><c>   4</c></rc>
    <rc><c>H </c><c>   4</c></rc>
    <rc><c>H </c><c>   4</c></rc>
    <rc><c>H </c><c>   4</c></rc>
    <rc><c>H </c><c>   4</c></rc>
    <rc><c>H </c><c>   4</c></rc>
    <rc><c>H </c><c>   4</c></rc>
    <rc><c>H </c><c>   4</c></rc>
    <rc><c>H </c><c>   4</c></rc>
    <rc><c>H </c><c>   4</c></rc>
    <rc><c>H </c><c>   4</c></rc>
    <rc><c>H </c><c>   4</c></rc>
    <rc><c>H </c><c>   4</c></rc>
    <rc><c>H </c><c>   4</c></rc>
    <rc><c>H </c><c>   4</c></rc>
    <rc><c>H </c><c>   4</c></rc>
    <rc><c>H </c><c>   4</c></rc>
    <rc><c>H </c><c>   4</c></rc>
    <rc><c>H </c><c>   4</c></rc>
    <rc><c>H </c><c>   4</c></rc>
    <rc><c>H </c><c>   4</c></rc>
    <rc><c>H </c><c>   4</c></rc>
    <rc><c>H </c><c>   4</c></rc>
    <rc><c>H </c><c>   4</c></rc>
    <rc><c>H </c><c>   4</c></rc>
    <rc><c>H </c><c>   4</c></rc>
    <rc><c>H </c><c>   4</c></rc>
    <rc><c>H </c><c>   4</c></rc>
    <rc><c>H </c><c>   4</c></rc>
    <rc><c>H </c><c>   4</c></rc>
    <rc><c>H </c><c>   4</c></rc>
    <rc><c>H </c><c>   4</c></rc>
    <rc><c>H </c><c>   4</c></rc>
    <rc><c>H </c><c>   4</c></rc>
    <rc><c>H </c><c>   4</c></rc>
    <rc><c>H </c><c>   4</c></rc>
    <rc><c>H </c><c>   4</c></rc>
    <rc><c>H </c><c>   4</c></rc>
    <rc><c>H </c><c>   4</c></rc>
    <rc><c>H </c><c>   4</c></rc>
    <rc><c>H </c><c>   4</c></rc>
    <rc><c>H </c><c>   4</c></rc>
    <rc><c>H </c><c>   4</c></rc>
    <rc><c>H </c><c>   4</c></rc>
    <rc><c>H </c><c>   4</c></rc>
    <rc><c>H </c><c>   4</c></rc>
    <rc><c>H </c><c>   4</c></rc>
    <rc><c>H </c><c>   4</c></rc>
    <rc><c>H </c><c>   4</c></rc>
    <rc><c>H </c><c>   4</c></rc>
    <rc><c>H </c><c>   4</c></rc>
    <rc><c>H </c><c>   4</c></rc>
    <rc><c>H </c><c>   4</c></rc>
    <rc><c>H </c><c>   4</c></rc>
    <rc><c>H </c><c>   4</c></rc>
    <rc><c>H </c><c>   4</c></rc>
    <rc><c>H </c><c>   4</c></rc>
    <rc><c>H </c><c>   4</c></rc>
    <rc><c>H </c><c>   4</c></rc>
    <rc><c>H </c><c>   4</c></rc>
    <rc><c>H </c><c>   4</c></rc>
    <rc><c>H </c><c>   4</c></rc>
    <rc><c>H </c><c>   4</c></rc>
    <rc><c>H </c><c>   4</c></rc>
    <rc><c>H </c><c>   4</c></rc>
    <rc><c>H </c><c>   4</c></rc>
    <rc><c>H </c><c>   4</c></rc>
    <rc><c>H </c><c>   4</c></rc>
    <rc><c>H </c><c>   4</c></rc>
    <rc><c>H </c><c>   4</c></rc>
    <rc><c>H </c><c>   4</c></rc>
    <rc><c>H </c><c>   4</c></rc>
    <rc><c>H </c><c>   4</c></rc>
    <rc><c>H </c><c>   4</c></rc>
    <rc><c>H </c><c>   4</c></rc>
    <rc><c>H </c><c>   4</c></rc>
    <rc><c>H </c><c>   4</c></rc>
    <rc><c>H </c><c>   4</c></rc>
    <rc><c>H </c><c>   4</c></rc>
    <rc><c>H </c><c>   4</c></rc>
    <rc><c>H </c><c>   4</c></rc>
    <rc><c>H </c><c>   4</c></rc>
    <rc><c>H </c><c>   4</c></rc>
    <rc><c>H </c><c>   4</c></rc>
    <rc><c>H </c><c>   4</c></rc>
    <rc><c>H </c><c>   4</c></rc>
    <rc><c>H </c><c>   4</c></rc>
    <rc><c>H </c><c>   4</c></rc>
    <rc><c>H </c><c>   4</c></rc>
    <rc><c>H </c><c>   4</c></rc>
    <rc><c>H </c><c>   4</c></rc>
    <rc><c>H </c><c>   4</c></rc>
    <rc><c>H </c><c>   4</c></rc>
    <rc><c>H </c><c>   4</c></rc>
    <rc><c>H </c><c>   4</c></rc>
    <rc><c>H </c><c>   4</c></rc>
    <rc><c>H </c><c>   4</c></rc>
    <rc><c>H </c><c>   4</c></rc>
    <rc><c>H </c><c>   4</c></rc>
    <rc><c>H </c><c>   4</c></rc>
    <rc><c>H </c><c>   4</c></rc>
    <rc><c>H </c><c>   4</c></rc>
    <rc><c>H </c><c>   4</c></rc>
    <rc><c>H </c><c>   4</c></rc>
    <rc><c>H </c><c>   4</c></rc>
    <rc><c>H </c><c>   4</c></rc>
    <rc><c>H </c><c>   4</c></rc>
    <rc><c>H </c><c>   4</c></rc>
    <rc><c>H </c><c>   4</c></rc>
   </set>
  </array>
  <array name="atomtypes" >
   <dimension dim="1">type</dimension>
   <field type="int">atomspertype</field>
   <field type="string">element</field>
   <field>mass</field>
   <field>valence</field>
   <field type="string">pseudopotential</field>
   <set>
    <rc><c>  62</c><c>Cu</c><c>     63.54600000</c><c>     11.00000000</c><c>  PAW_PBE Cu 22Jun2005                  </c></rc>
    <rc><c>   2</c><c>Ag</c><c>    107.86800000</c><c>     11.00000000</c><c>  PAW_PBE Ag 02Apr2005                  </c></rc>
    <rc><c>  70</c><c>O </c><c>     16.00000000</c><c>      6.00000000</c><c>  PAW_PBE O 08Apr2002                   </c></rc>
    <rc><c> 140</c><c>H </c><c>      1.00000000</c><c>      1.00000000</c><c>  PAW_PBE H 15Jun2001                   </c></rc>
   </set>
  </array>
 </atominfo>
 <structure name="initialpos" >
  <crystal>
   <varray name="basis" >
    <v>      10.22390000       0.00000000       0.00000000 </v>
    <v>       0.00000000      10.22390000       0.00000000 </v>
    <v>       0.00000000       0.00000000      26.42200000 </v>
   </varray>
   <i name="volume">   2761.84228283 </i>
   <varray name="rec_basis" >
    <v>       0.09781003      -0.00000000      -0.00000000 </v>
    <v>       0.00000000       0.09781003      -0.00000000 </v>
    <v>       0.00000000       0.00000000       0.03784725 </v>
   </varray>
  </crystal>
  <varray name="positions" >
   <v>       0.95064000       0.00704000       0.97497000 </v>
   <v>       0.19191000       0.24539000       0.97925000 </v>
   <v>       0.94389000       0.01256000       0.11889000 </v>
   <v>       0.20346000       0.24047000       0.11888000 </v>
   <v>       0.19870000       0.00212000       0.97988000 </v>
   <v>       0.94792000       0.26104000       0.98087000 </v>
   <v>       0.18916000       0.99037000       0.12253000 </v>
   <v>       0.96770000       0.25062000       0.11890000 </v>
   <v>       0.32766000       0.10941000       0.91639000 </v>
   <v>       0.05952000       0.38631000       0.91193000 </v>
   <v>       0.33322000       0.13068000       0.04385000 </v>
   <v>       0.06136000       0.37404000       0.05201000 </v>
   <v>       0.07454000       0.13621000       0.90893000 </v>
   <v>       0.06452000       0.11706000       0.05026000 </v>
   <v>       0.30801000       0.37538000       0.04860000 </v>
   <v>       0.45437000       0.97338000       0.98141000 </v>
   <v>       0.70650000       0.24343000       0.98402000 </v>
   <v>       0.43126000       0.00146000       0.11914000 </v>
   <v>       0.69368000       0.26357000       0.12608000 </v>
   <v>       0.69810000       0.99859000       0.98982000 </v>
   <v>       0.45825000       0.24454000       0.98070000 </v>
   <v>       0.69158000       0.00328000       0.11161000 </v>
   <v>       0.45214000       0.24642000       0.11364000 </v>
   <v>       0.80947000       0.12616000       0.91873000 </v>
   <v>       0.58025000       0.36935000       0.91258000 </v>
   <v>       0.82135000       0.12693000       0.05590000 </v>
   <v>       0.57326000       0.37776000       0.04973000 </v>
   <v>       0.57806000       0.11492000       0.91264000 </v>
   <v>       0.81606000       0.37135000       0.91644000 </v>
   <v>       0.57143000       0.11943000       0.05007000 </v>
   <v>       0.81511000       0.36750000       0.05373000 </v>
   <v>       0.95075000       0.50738000       0.98039000 </v>
   <v>       0.20544000       0.75615000       0.98309000 </v>
   <v>       0.93040000       0.50036000       0.11669000 </v>
   <v>       0.19948000       0.75234000       0.11667000 </v>
   <v>       0.18780000       0.49448000       0.98224000 </v>
   <v>       0.94885000       0.75599000       0.98008000 </v>
   <v>       0.16192000       0.49100000       0.12106000 </v>
   <v>       0.94134000       0.74031000       0.12241000 </v>
   <v>       0.31837000       0.63443000       0.91490000 </v>
   <v>       0.08832000       0.87738000       0.91646000 </v>
   <v>       0.31570000       0.61381000       0.04572000 </v>
   <v>       0.07469000       0.88457000       0.05169000 </v>
   <v>       0.05188000       0.63124000       0.90976000 </v>
   <v>       0.32360000       0.86979000       0.91332000 </v>
   <v>       0.07592000       0.62515000       0.04934000 </v>
   <v>       0.31699000       0.87353000       0.05180000 </v>
   <v>       0.44602000       0.49060000       0.97850000 </v>
   <v>       0.69461000       0.75385000       0.97839000 </v>
   <v>       0.69795000       0.75447000       0.11448000 </v>
   <v>       0.68724000       0.50073000       0.97939000 </v>
   <v>       0.44779000       0.73832000       0.97788000 </v>
   <v>       0.70048000       0.51842000       0.12122000 </v>
   <v>       0.44691000       0.75126000       0.11230000 </v>
   <v>       0.82494000       0.64038000       0.91967000 </v>
   <v>       0.57075000       0.87112000       0.90773000 </v>
   <v>       0.82430000       0.62318000       0.04708000 </v>
   <v>       0.56744000       0.87625000       0.05083000 </v>
   <v>       0.57361000       0.61930000       0.90920000 </v>
   <v>       0.80759000       0.88124000       0.91669000 </v>
   <v>       0.57826000       0.63325000       0.04623000 </v>
   <v>       0.83693000       0.87205000       0.05283000 </v>
   <v>       0.32549000       0.35874000       0.90086000 </v>
   <v>       0.43642000       0.50279000       0.12241000 </v>
   <v>       0.57073000       0.78731000       0.25095000 </v>
   <v>       0.81309000       0.66861000       0.22616000 </v>
   <v>       0.08206000       0.17507000       0.62562000 </v>
   <v>       0.41615000       0.02394000       0.20222000 </v>
   <v>       0.08104000       0.11290000       0.23274000 </v>
   <v>       0.71360000       0.29438000       0.45994000 </v>
   <v>       0.09986000       0.53055000       0.65186000 </v>
   <v>       0.79038000       0.12322000       0.77678000 </v>
   <v>       0.66809000       0.39157000       0.79121000 </v>
   <v>       0.18196000       0.83045000       0.51384000 </v>
   <v>       0.71666000       0.22883000       0.64800000 </v>
   <v>       0.05524000       0.15332000       0.82468000 </v>
   <v>       0.59227000       0.47896000       0.68262000 </v>
   <v>       0.74863000       0.39568000       0.33308000 </v>
   <v>       0.67651000       0.58781000       0.58817000 </v>
   <v>       0.92974000       0.42953000       0.41537000 </v>
   <v>       0.38257000       0.82501000       0.62887000 </v>
   <v>       0.43977000       0.52392000       0.34624000 </v>
   <v>       0.70850000       0.31158000       0.20525000 </v>
   <v>       0.46377000       0.09821000       0.52962000 </v>
   <v>       0.20172000       0.86121000       0.41614000 </v>
   <v>       0.32749000       0.86697000       0.82815000 </v>
   <v>       0.92686000       0.71054000       0.78843000 </v>
   <v>       0.32093000       0.31613000       0.48946000 </v>
   <v>       0.85665000       0.66339000       0.45400000 </v>
   <v>       0.35519000       0.40817000       0.58580000 </v>
   <v>       0.29496000       0.54976000       0.80315000 </v>
   <v>       0.89264000       0.40472000       0.70408000 </v>
   <v>       0.58860000       0.93510000       0.47903000 </v>
   <v>       0.29195000       0.28250000       0.67493000 </v>
   <v>       0.97873000       0.58933000       0.29187000 </v>
   <v>       0.80560000       0.99158000       0.52088000 </v>
   <v>       0.81750000       0.97241000       0.34809000 </v>
   <v>       0.93419000       0.76286000       0.53708000 </v>
   <v>       0.37596000       0.80703000       0.33566000 </v>
   <v>       0.21909000       0.30466000       0.31572000 </v>
   <v>       0.54371000       0.65161000       0.82805000 </v>
   <v>       0.66089000       0.86119000       0.61185000 </v>
   <v>       0.50022000       0.11494000       0.69361000 </v>
   <v>       0.05877000       0.08709000       0.37089000 </v>
   <v>       0.22881000       0.28318000       0.77806000 </v>
   <v>       0.67771000       0.68090000       0.34918000 </v>
   <v>       0.97514000       0.77427000       0.38147000 </v>
   <v>       0.09640000       0.25780000       0.45176000 </v>
   <v>       0.62658000       0.28910000       0.55651000 </v>
   <v>       0.90045000       0.48047000       0.56932000 </v>
   <v>       0.55527000       0.84968000       0.74346000 </v>
   <v>       0.69134000       0.92061000       0.82705000 </v>
   <v>       0.36296000       0.29285000       0.22400000 </v>
   <v>       0.93612000       0.22933000       0.54360000 </v>
   <v>       0.50265000       0.23419000       0.34661000 </v>
   <v>       0.54871000       0.50155000       0.25385000 </v>
   <v>       0.75273000       0.67215000       0.71549000 </v>
   <v>       0.76820000       0.99556000       0.68117000 </v>
   <v>       0.57022000       0.99541000       0.38053000 </v>
   <v>       0.16111000       0.67762000       0.22917000 </v>
   <v>       0.32164000       0.62800000       0.69825000 </v>
   <v>       0.55355000       0.65700000       0.50185000 </v>
   <v>       0.66975000       0.08801000       0.25820000 </v>
   <v>       0.24744000       0.00821000       0.57960000 </v>
   <v>       0.94870000       0.75280000       0.63778000 </v>
   <v>       0.10058000       0.92217000       0.78184000 </v>
   <v>       0.34331000       0.64681000       0.55427000 </v>
   <v>       0.23472000       0.90133000       0.26025000 </v>
   <v>       0.49854000       0.44079000       0.44093000 </v>
   <v>       0.87330000       0.95730000       0.23513000 </v>
   <v>       0.96800000       0.37861000       0.23481000 </v>
   <v>       0.04294000       0.95344000       0.68175000 </v>
   <v>       0.92330000       0.45326000       0.80694000 </v>
   <v>       0.44380000       0.13066000       0.80501000 </v>
   <v>       0.52202000       0.79155000       0.21877000 </v>
   <v>       0.51230000       0.78908000       0.27901000 </v>
   <v>       0.73271000       0.71582000       0.23619000 </v>
   <v>       0.80139000       0.63773000       0.19121000 </v>
   <v>       0.05058000       0.10393000       0.64854000 </v>
   <v>       0.14860000       0.12266000       0.60573000 </v>
   <v>       0.33171000       0.97961000       0.21539000 </v>
   <v>       0.38729000       0.11620000       0.20666000 </v>
   <v>       0.06089000       0.20666000       0.24317000 </v>
   <v>       0.09890000       0.12822000       0.19571000 </v>
   <v>       0.70102000       0.30456000       0.49766000 </v>
   <v>       0.79997000       0.32913000       0.44902000 </v>
   <v>       0.09237000       0.48765000       0.61977000 </v>
   <v>       0.02910000       0.60237000       0.64459000 </v>
   <v>       0.75435000       0.07197000       0.74852000 </v>
   <v>       0.73624000       0.20788000       0.77442000 </v>
   <v>       0.76476000       0.41135000       0.79747000 </v>
   <v>       0.65514000       0.41265000       0.75698000 </v>
   <v>       0.22862000       0.75042000       0.52356000 </v>
   <v>       0.20800000       0.84733000       0.47640000 </v>
   <v>       0.67935000       0.26528000       0.61562000 </v>
   <v>       0.77229000       0.29233000       0.66687000 </v>
   <v>       0.96463000       0.17398000       0.81742000 </v>
   <v>       0.10701000       0.22155000       0.80518000 </v>
   <v>       0.50505000       0.50371000       0.69375000 </v>
   <v>       0.59752000       0.49718000       0.64323000 </v>
   <v>       0.72569000       0.48882000       0.32593000 </v>
   <v>       0.80691000       0.37108000       0.30435000 </v>
   <v>       0.71246000       0.66604000       0.60125000 </v>
   <v>       0.75685000       0.53404000       0.58830000 </v>
   <v>       0.88639000       0.39392000       0.38499000 </v>
   <v>       0.01498000       0.37995000       0.41768000 </v>
   <v>       0.33544000       0.89618000       0.60683000 </v>
   <v>       0.47639000       0.83538000       0.62651000 </v>
   <v>       0.49538000       0.50665000       0.31797000 </v>
   <v>       0.41471000       0.61633000       0.34177000 </v>
   <v>       0.69049000       0.22574000       0.22418000 </v>
   <v>       0.80224000       0.32160000       0.21422000 </v>
   <v>       0.40860000       0.14073000       0.50440000 </v>
   <v>       0.51433000       0.02735000       0.51171000 </v>
   <v>       0.27085000       0.83753000       0.39308000 </v>
   <v>       0.17303000       0.94322000       0.39875000 </v>
   <v>       0.37808000       0.94156000       0.81444000 </v>
   <v>       0.23421000       0.88868000       0.82235000 </v>
   <v>       0.85596000       0.70043000       0.75892000 </v>
   <v>       0.88502000       0.71955000       0.82135000 </v>
   <v>       0.38146000       0.35944000       0.46429000 </v>
   <v>       0.33128000       0.35671000       0.52573000 </v>
   <v>       0.88079000       0.57671000       0.44339000 </v>
   <v>       0.90892000       0.71467000       0.42978000 </v>
   <v>       0.33994000       0.50309000       0.57957000 </v>
   <v>       0.32589000       0.37238000       0.61983000 </v>
   <v>       0.22531000       0.59410000       0.82218000 </v>
   <v>       0.29595000       0.59905000       0.77048000 </v>
   <v>       0.97775000       0.43589000       0.68917000 </v>
   <v>       0.91677000       0.38877000       0.73946000 </v>
   <v>       0.68998000       0.95994000       0.48934000 </v>
   <v>       0.57102000       0.84448000       0.48466000 </v>
   <v>       0.20853000       0.25261000       0.66203000 </v>
   <v>       0.35735000       0.20898000       0.67423000 </v>
   <v>       0.98846000       0.64638000       0.32343000 </v>
   <v>       0.90555000       0.62973000       0.27214000 </v>
   <v>       0.84685000       0.07562000       0.52094000 </v>
   <v>       0.87652000       0.92926000       0.52105000 </v>
   <v>       0.80038000       0.98551000       0.31139000 </v>
   <v>       0.72553000       0.99629000       0.36256000 </v>
   <v>       0.02616000       0.76891000       0.52879000 </v>
   <v>       0.89358000       0.71467000       0.50711000 </v>
   <v>       0.31117000       0.84801000       0.31014000 </v>
   <v>       0.43215000       0.87588000       0.34879000 </v>
   <v>       0.26731000       0.30048000       0.28353000 </v>
   <v>       0.28033000       0.34490000       0.34086000 </v>
   <v>       0.45372000       0.62291000       0.82060000 </v>
   <v>       0.59768000       0.57900000       0.82128000 </v>
   <v>       0.71001000       0.90293000       0.64119000 </v>
   <v>       0.66953000       0.92241000       0.58408000 </v>
   <v>       0.50249000       0.13735000       0.72938000 </v>
   <v>       0.58444000       0.15249000       0.67853000 </v>
   <v>       0.96744000       0.06514000       0.35591000 </v>
   <v>       0.09576000       0.15558000       0.35085000 </v>
   <v>       0.25034000       0.37817000       0.78680000 </v>
   <v>       0.25785000       0.27508000       0.74257000 </v>
   <v>       0.73002000       0.76125000       0.34425000 </v>
   <v>       0.66991000       0.67289000       0.38585000 </v>
   <v>       0.92274000       0.85243000       0.36542000 </v>
   <v>       0.05799000       0.80372000       0.39679000 </v>
   <v>       0.09773000       0.19482000       0.42028000 </v>
   <v>       0.18085000       0.27739000       0.46630000 </v>
   <v>       0.57558000       0.21269000       0.54471000 </v>
   <v>       0.55428000       0.35642000       0.56011000 </v>
   <v>       0.93760000       0.52484000       0.54042000 </v>
   <v>       0.90963000       0.38245000       0.56058000 </v>
   <v>       0.49156000       0.91252000       0.72854000 </v>
   <v>       0.49868000       0.79637000       0.76326000 </v>
   <v>       0.65670000       0.88694000       0.79557000 </v>
   <v>       0.72655000       0.01264000       0.81905000 </v>
   <v>       0.31307000       0.34444000       0.19880000 </v>
   <v>       0.43553000       0.35035000       0.23154000 </v>
   <v>       0.99066000       0.23704000       0.51227000 </v>
   <v>       0.99831000       0.18916000       0.56974000 </v>
   <v>       0.56670000       0.30180000       0.34739000 </v>
   <v>       0.51704000       0.18785000       0.31640000 </v>
   <v>       0.62528000       0.47197000       0.23401000 </v>
   <v>       0.52105000       0.57758000       0.23302000 </v>
   <v>       0.69529000       0.59928000       0.70275000 </v>
   <v>       0.69379000       0.74859000       0.72207000 </v>
   <v>       0.86530000       0.99014000       0.68624000 </v>
   <v>       0.76223000       0.08046000       0.66464000 </v>
   <v>       0.55057000       0.09683000       0.38107000 </v>
   <v>       0.57269000       0.96849000       0.41790000 </v>
   <v>       0.13337000       0.65231000       0.19704000 </v>
   <v>       0.10101000       0.63710000       0.25423000 </v>
   <v>       0.34456000       0.70610000       0.67450000 </v>
   <v>       0.25480000       0.58081000       0.67879000 </v>
   <v>       0.62101000       0.62629000       0.52735000 </v>
   <v>       0.54347000       0.58367000       0.47669000 </v>
   <v>       0.58472000       0.05666000       0.24259000 </v>
   <v>       0.73325000       0.02966000       0.24127000 </v>
   <v>       0.22252000       0.94243000       0.54986000 </v>
   <v>       0.32167000       0.05584000       0.56230000 </v>
   <v>       0.86328000       0.72596000       0.65582000 </v>
   <v>       0.91498000       0.77597000       0.60462000 </v>
   <v>       0.07365000       0.00327000       0.79972000 </v>
   <v>       0.02738000       0.86064000       0.78685000 </v>
   <v>       0.42405000       0.64140000       0.53113000 </v>
   <v>       0.35411000       0.70617000       0.58595000 </v>
   <v>       0.15911000       0.96217000       0.26530000 </v>
   <v>       0.19848000       0.81679000       0.24213000 </v>
   <v>       0.58714000       0.38426000       0.44298000 </v>
   <v>       0.48781000       0.46820000       0.40416000 </v>
   <v>       0.89379000       0.86446000       0.22754000 </v>
   <v>       0.95157000       0.00900000       0.22826000 </v>
   <v>       0.99680000       0.44080000       0.26248000 </v>
   <v>       0.02225000       0.38549000       0.20437000 </v>
   <v>       0.07318000       0.94402000       0.71690000 </v>
   <v>       0.01790000       0.86813000       0.66938000 </v>
   <v>       0.93732000       0.54775000       0.79733000 </v>
   <v>       0.95633000       0.44754000       0.84201000 </v>
   <v>       0.49076000       0.14956000       0.83913000 </v>
   <v>       0.38498000       0.20426000       0.80027000 </v>
  </varray>
 </structure>
 <calculation>
  <scstep>
   <time name="diag">    4.24    4.25</time>
   <time name="diis">    9.39    9.41</time>
   <time name="orth">    1.14    1.15</time>
   <time name="total">   15.07   15.11</time>
   <energy>
    <i name="alphaZ">   2855.32033189 </i>
    <i name="ewald"> 137380.89876225 </i>
    <i name="hartreedc">-254278.72597146 </i>
    <i name="XCdc">   5165.74604966 </i>
    <i name="pawpsdc"> 102648.41696062 </i>
    <i name="pawaedc">-109243.99932965 </i>
    <i name="eentropy">     -0.12378899 </i>
    <i name="bandstr">   6356.05045390 </i>
    <i name="atom"> 120326.26917517 </i>
    <i name="e_fr_energy">  11209.85264340 </i>
    <i name="e_wo_entrp">  11209.97643239 </i>
    <i name="e_0_energy">  11209.89390639 </i>
   </energy>
  </scstep>
  <scstep>
   <time name="diag">    4.49    4.51</time>
   <time name="diis">    8.97    8.99</time>
   <time name="orth">    1.14    1.14</time>
   <time name="total">   14.60   14.64</time>
   <energy>
    <i name="e_fr_energy">   2781.19383415 </i>
    <i name="e_wo_entrp">   2781.22023074 </i>
    <i name="e_0_energy">   2781.20263301 </i>
   </energy>
  </scstep>
  <scstep>
   <time name="diag">    4.51    4.53</time>
   <time name="diis">    9.33    9.35</time>
   <time name="orth">    1.14    1.14</time>
   <time name="total">   14.98   15.02</time>
   <energy>
    <i name="e_fr_energy">    778.61861271 </i>
    <i name="e_wo_entrp">    778.64979882 </i>
    <i name="e_0_energy">    778.62900808 </i>
   </energy>
  </scstep>
  <scstep>
   <time name="diag">    4.28    4.29</time>
   <time name="diis">    9.68    9.71</time>
   <time name="orth">    1.05    1.05</time>
   <time name="total">   15.02   15.05</time>
   <energy>
    <i name="e_fr_energy">   -271.45206113 </i>
    <i name="e_wo_entrp">   -271.39165144 </i>
    <i name="e_0_energy">   -271.43192457 </i>
   </energy>
  </scstep>
  <scstep>
   <time name="diag">    4.38    4.39</time>
   <time name="diis">    9.60    9.62</time>
   <time name="orth">    1.11    1.11</time>
   <time name="total">   15.09   15.12</time>
   <energy>
    <i name="e_fr_energy">   -747.73558700 </i>
    <i name="e_wo_entrp">   -747.73826692 </i>
    <i name="e_0_energy">   -747.73648030 </i>
   </energy>
  </scstep>
  <scstep>
   <time name="diag">    4.17    4.18</time>
   <time name="diis">    9.28    9.30</time>
   <time name="orth">    1.14    1.14</time>
   <time name="total">   14.59   14.63</time>
   <energy>
    <i name="e_fr_energy">   -953.15837999 </i>
    <i name="e_wo_entrp">   -953.23519916 </i>
    <i name="e_0_energy">   -953.18398638 </i>
   </energy>
  </scstep>
  <scstep>
   <time name="diag">    4.48    4.49</time>
   <time name="diis">    8.86    8.88</time>
   <time name="orth">    1.18    1.19</time>
   <time name="total">   14.52   14.56</time>
   <energy>
    <i name="e_fr_energy">  -1054.61131889 </i>
    <i name="e_wo_entrp">  -1054.69953667 </i>
    <i name="e_0_energy">  -1054.64072482 </i>
   </energy>
  </scstep>
  <scstep>
   <time name="diag">    4.49    4.51</time>
   <time name="diis">    9.25    9.28</time>
   <time name="orth">    1.12    1.12</time>
   <time name="total">   14.87   14.91</time>
   <energy>
    <i name="e_fr_energy">  -1097.55159825 </i>
    <i name="e_wo_entrp">  -1097.68095844 </i>
    <i name="e_0_energy">  -1097.59471831 </i>
   </energy>
  </scstep>
  <scstep>
   <time name="diag">    4.27    4.28</time>
   <time name="diis">   24.10   24.16</time>
   <time name="orth">    1.14    1.14</time>
   <time name="total">   29.50   29.58</time>
   <energy>
    <i name="e_fr_energy">  -1141.24185558 </i>
    <i name="e_wo_entrp">  -1141.37238630 </i>
    <i name="e_0_energy">  -1141.28536582 </i>
   </energy>
  </scstep>
  <scstep>
   <time name="diag">    4.28    4.29</time>
   <time name="diis">   34.09   34.17</time>
   <time name="orth">    1.13    1.13</time>
   <time name="total">   39.50   39.60</time>
   <energy>
    <i name="e_fr_energy">  -1142.89234106 </i>
    <i name="e_wo_entrp">  -1143.03405451 </i>
    <i name="e_0_energy">  -1142.93957888 </i>
   </energy>
  </scstep>
  <scstep>
   <time name="diag">    3.96    3.97</time>
   <time name="diis">   34.72   34.81</time>
   <time name="orth">    1.13    1.14</time>
   <time name="total">   39.82   39.92</time>
   <energy>
    <i name="e_fr_energy">  -1142.91823040 </i>
    <i name="e_wo_entrp">  -1143.06225527 </i>
    <i name="e_0_energy">  -1142.96623869 </i>
   </energy>
  </scstep>
  <scstep>
   <time name="diag">    4.48    4.51</time>
   <time name="diis">   32.17   32.25</time>
   <time name="orth">    1.17    1.18</time>
   <time name="total">   39.26   39.37</time>
   <energy>
    <i name="e_fr_energy">  -1142.92547852 </i>
    <i name="e_wo_entrp">  -1143.06997821 </i>
    <i name="e_0_energy">  -1142.97364509 </i>
   </energy>
  </scstep>
  <scstep>
   <time name="diag">    4.46    4.48</time>
   <time name="diis">   22.85   22.91</time>
   <time name="orth">    1.10    1.10</time>
   <time name="total">   29.97   30.06</time>
   <energy>
    <i name="e_fr_energy">   -282.34252999 </i>
    <i name="e_wo_entrp">   -282.45326392 </i>
    <i name="e_0_energy">   -282.37944130 </i>
   </energy>
  </scstep>
  <scstep>
   <time name="diag">    4.40    4.41</time>
   <time name="diis">   25.75   25.81</time>
   <time name="orth">    1.13    1.14</time>
   <time name="total">   32.79   32.88</time>
   <energy>
    <i name="e_fr_energy">   -313.27792343 </i>
    <i name="e_wo_entrp">   -313.18748548 </i>
    <i name="e_0_energy">   -313.24777745 </i>
   </energy>
  </scstep>
  <scstep>
   <time name="diag">    4.51    4.52</time>
   <time name="diis">   23.69   23.74</time>
[...]
       <r>    10.9334    44.3713   848.8607 </r>
       <r>    11.0636    42.5155   854.3938 </r>
       <r>    11.1937    43.5114   860.0566 </r>
       <r>    11.3239    45.4696   865.9742 </r>
       <r>    11.4540    43.0969   871.5831 </r>
       <r>    11.5842    39.0634   876.6670 </r>
       <r>    11.7143    41.4674   882.0637 </r>
       <r>    11.8444    45.0139   887.9220 </r>
       <r>    11.9746    42.1901   893.4129 </r>
       <r>    12.1047    31.3924   897.4984 </r>
       <r>    12.2349    20.6388   900.1844 </r>
       <r>    12.3650    15.3828   902.1864 </r>
       <r>    12.4952    10.5814   903.5635 </r>
       <r>    12.6253     7.1675   904.4964 </r>
       <r>    12.7555     3.7705   904.9871 </r>
       <r>    12.8856     0.4573   905.0466 </r>
       <r>    13.0157    -0.2765   905.0106 </r>
       <r>    13.1459    -0.0779   905.0005 </r>
       <r>    13.2760    -0.0515   904.9937 </r>
       <r>    13.4062    -0.2833   904.9569 </r>
       <r>    13.5363    -0.1691   904.9349 </r>
       <r>    13.6665     3.2096   905.3526 </r>
       <r>    13.7966     9.8021   906.6283 </r>
       <r>    13.9268    13.4362   908.3769 </r>
       <r>    14.0569    13.6504   910.1535 </r>
       <r>    14.1871    10.9575   911.5795 </r>
       <r>    14.3172     3.8618   912.0821 </r>
       <r>    14.4473    -0.2505   912.0495 </r>
       <r>    14.5775    -0.3311   912.0064 </r>
       <r>    14.7076    -0.0471   912.0003 </r>
       <r>    14.8378    -0.0023   912.0000 </r>
       <r>    14.9679    -0.0000   912.0000 </r>
       <r>    15.0981    -0.0000   912.0000 </r>
       <r>    15.2282    -0.0000   912.0000 </r>
       <r>    15.3584    -0.0000   912.0000 </r>
       <r>    15.4885    -0.0000   912.0000 </r>
       <r>    15.6186     0.0000   912.0000 </r>
       <r>    15.7488     0.0000   912.0000 </r>
       <r>    15.8789     0.0000   912.0000 </r>
       <r>    16.0091     0.0000   912.0000 </r>
       <r>    16.1392     0.0000   912.0000 </r>
      </set>
     </set>
    </array>
   </total>
  </dos>
 </calculation>
 <structure name="finalpos" >
  <crystal>
   <varray name="basis" >
    <v>      10.22390000       0.00000000       0.00000000 </v>
    <v>       0.00000000      10.22390000       0.00000000 </v>
    <v>       0.00000000       0.00000000      26.42200000 </v>
   </varray>
   <i name="volume">   2761.84228283 </i>
   <varray name="rec_basis" >
    <v>       0.09781003      -0.00000000      -0.00000000 </v>
    <v>       0.00000000       0.09781003      -0.00000000 </v>
    <v>       0.00000000       0.00000000       0.03784725 </v>
   </varray>
  </crystal>
  <varray name="positions" >
   <v>       0.95064000       0.00704000       0.97497000 </v>
   <v>       0.19191000       0.24539000       0.97925000 </v>
   <v>       0.94389000       0.01256000       0.11889000 </v>
   <v>       0.20346000       0.24047000       0.11888000 </v>
   <v>       0.19870000       0.00212000       0.97988000 </v>
   <v>       0.94792000       0.26104000       0.98087000 </v>
   <v>       0.18916000       0.99037000       0.12253000 </v>
   <v>       0.96770000       0.25062000       0.11890000 </v>
   <v>       0.32766000       0.10941000       0.91639000 </v>
   <v>       0.05952000       0.38631000       0.91193000 </v>
   <v>       0.33322000       0.13068000       0.04385000 </v>
   <v>       0.06136000       0.37404000       0.05201000 </v>
   <v>       0.07454000       0.13621000       0.90893000 </v>
   <v>       0.06452000       0.11706000       0.05026000 </v>
   <v>       0.30801000       0.37538000       0.04860000 </v>
   <v>       0.45437000       0.97338000       0.98141000 </v>
   <v>       0.70650000       0.24343000       0.98402000 </v>
   <v>       0.43126000       0.00146000       0.11914000 </v>
   <v>       0.69368000       0.26357000       0.12608000 </v>
   <v>       0.69810000       0.99859000       0.98982000 </v>
   <v>       0.45825000       0.24454000       0.98070000 </v>
   <v>       0.69158000       0.00328000       0.11161000 </v>
   <v>       0.45214000       0.24642000       0.11364000 </v>
   <v>       0.80947000       0.12616000       0.91873000 </v>
   <v>       0.58025000       0.36935000       0.91258000 </v>
   <v>       0.82135000       0.12693000       0.05590000 </v>
   <v>       0.57326000       0.37776000       0.04973000 </v>
   <v>       0.57806000       0.11492000       0.91264000 </v>
   <v>       0.81606000       0.37135000       0.91644000 </v>
   <v>       0.57143000       0.11943000       0.05007000 </v>
   <v>       0.81511000       0.36750000       0.05373000 </v>
   <v>       0.95075000       0.50738000       0.98039000 </v>
   <v>       0.20544000       0.75615000       0.98309000 </v>
   <v>       0.93040000       0.50036000       0.11669000 </v>
   <v>       0.19948000       0.75234000       0.11667000 </v>
   <v>       0.18780000       0.49448000       0.98224000 </v>
   <v>       0.94885000       0.75599000       0.98008000 </v>
   <v>       0.16192000       0.49100000       0.12106000 </v>
   <v>       0.94134000       0.74031000       0.12241000 </v>
   <v>       0.31837000       0.63443000       0.91490000 </v>
   <v>       0.08832000       0.87738000       0.91646000 </v>
   <v>       0.31570000       0.61381000       0.04572000 </v>
   <v>       0.07469000       0.88457000       0.05169000 </v>
   <v>       0.05188000       0.63124000       0.90976000 </v>
   <v>       0.32360000       0.86979000       0.91332000 </v>
   <v>       0.07592000       0.62515000       0.04934000 </v>
   <v>       0.31699000       0.87353000       0.05180000 </v>
   <v>       0.44602000       0.49060000       0.97850000 </v>
   <v>       0.69461000       0.75385000       0.97839000 </v>
   <v>       0.69795000       0.75447000       0.11448000 </v>
   <v>       0.68724000       0.50073000       0.97939000 </v>
   <v>       0.44779000       0.73832000       0.97788000 </v>
   <v>       0.70048000       0.51842000       0.12122000 </v>
   <v>       0.44691000       0.75126000       0.11230000 </v>
   <v>       0.82494000       0.64038000       0.91967000 </v>
   <v>       0.57075000       0.87112000       0.90773000 </v>
   <v>       0.82430000       0.62318000       0.04708000 </v>
   <v>       0.56744000       0.87625000       0.05083000 </v>
   <v>       0.57361000       0.61930000       0.90920000 </v>
   <v>       0.80759000       0.88124000       0.91669000 </v>
   <v>       0.57826000       0.63325000       0.04623000 </v>
   <v>       0.83693000       0.87205000       0.05283000 </v>
   <v>       0.32549000       0.35874000       0.90086000 </v>
   <v>       0.43642000       0.50279000       0.12241000 </v>
   <v>       0.57073000       0.78731000       0.25095000 </v>
   <v>       0.81309000       0.66861000       0.22616000 </v>
   <v>       0.08206000       0.17507000       0.62562000 </v>
   <v>       0.41615000       0.02394000       0.20222000 </v>
   <v>       0.08104000       0.11290000       0.23274000 </v>
   <v>       0.71360000       0.29438000       0.45994000 </v>
   <v>       0.09986000       0.53055000       0.65186000 </v>
   <v>       0.79038000       0.12322000       0.77678000 </v>
   <v>       0.66809000       0.39157000       0.79121000 </v>
   <v>       0.18196000       0.83045000       0.51384000 </v>
   <v>       0.71666000       0.22883000       0.64800000 </v>
   <v>       0.05524000       0.15332000       0.82468000 </v>
   <v>       0.59227000       0.47896000       0.68262000 </v>
   <v>       0.74863000       0.39568000       0.33308000 </v>
   <v>       0.67651000       0.58781000       0.58817000 </v>
   <v>       0.92974000       0.42953000       0.41537000 </v>
   <v>       0.38257000       0.82501000       0.62887000 </v>
   <v>       0.43977000       0.52392000       0.34624000 </v>
   <v>       0.70850000       0.31158000       0.20525000 </v>
   <v>       0.46377000       0.09821000       0.52962000 </v>
   <v>       0.20172000       0.86121000       0.41614000 </v>
   <v>       0.32749000       0.86697000       0.82815000 </v>
   <v>       0.92686000       0.71054000       0.78843000 </v>
   <v>       0.32093000       0.31613000       0.48946000 </v>
   <v>       0.85665000       0.66339000       0.45400000 </v>
   <v>       0.35519000       0.40817000       0.58580000 </v>
   <v>       0.29496000       0.54976000       0.80315000 </v>
   <v>       0.89264000       0.40472000       0.70408000 </v>
   <v>       0.58860000       0.93510000       0.47903000 </v>
   <v>       0.29195000       0.28250000       0.67493000 </v>
   <v>       0.97873000       0.58933000       0.29187000 </v>
   <v>       0.80560000       0.99158000       0.52088000 </v>
   <v>       0.81750000       0.97241000       0.34809000 </v>
   <v>       0.93419000       0.76286000       0.53708000 </v>
   <v>       0.37596000       0.80703000       0.33566000 </v>
   <v>       0.21909000       0.30466000       0.31572000 </v>
   <v>       0.54371000       0.65161000       0.82805000 </v>
   <v>       0.66089000       0.86119000       0.61185000 </v>
   <v>       0.50022000       0.11494000       0.69361000 </v>
   <v>       0.05877000       0.08709000       0.37089000 </v>
   <v>       0.22881000       0.28318000       0.77806000 </v>
   <v>       0.67771000       0.68090000       0.34918000 </v>
   <v>       0.97514000       0.77427000       0.38147000 </v>
   <v>       0.09640000       0.25780000       0.45176000 </v>
   <v>       0.62658000       0.28910000       0.55651000 </v>
   <v>       0.90045000       0.48047000       0.56932000 </v>
   <v>       0.55527000       0.84968000       0.74346000 </v>
   <v>       0.69134000       0.92061000       0.82705000 </v>
   <v>       0.36296000       0.29285000       0.22400000 </v>
   <v>       0.93612000       0.22933000       0.54360000 </v>
   <v>       0.50265000       0.23419000       0.34661000 </v>
   <v>       0.54871000       0.50155000       0.25385000 </v>
   <v>       0.75273000       0.67215000       0.71549000 </v>
   <v>       0.76820000       0.99556000       0.68117000 </v>
   <v>       0.57022000       0.99541000       0.38053000 </v>
   <v>       0.16111000       0.67762000       0.22917000 </v>
   <v>       0.32164000       0.62800000       0.69825000 </v>
   <v>       0.55355000       0.65700000       0.50185000 </v>
   <v>       0.66975000       0.08801000       0.25820000 </v>
   <v>       0.24744000       0.00821000       0.57960000 </v>
   <v>       0.94870000       0.75280000       0.63778000 </v>
   <v>       0.10058000       0.92217000       0.78184000 </v>
   <v>       0.34331000       0.64681000       0.55427000 </v>
   <v>       0.23472000       0.90133000       0.26025000 </v>
   <v>       0.49854000       0.44079000       0.44093000 </v>
   <v>       0.87330000       0.95730000       0.23513000 </v>
   <v>       0.96800000       0.37861000       0.23481000 </v>
   <v>       0.04294000       0.95344000       0.68175000 </v>
   <v>       0.92330000       0.45326000       0.80694000 </v>
   <v>       0.44380000       0.13066000       0.80501000 </v>
   <v>       0.52202000       0.79155000       0.21877000 </v>
   <v>       0.51230000       0.78908000       0.27901000 </v>
   <v>       0.73271000       0.71582000       0.23619000 </v>
   <v>       0.80139000       0.63773000       0.19121000 </v>
   <v>       0.05058000       0.10393000       0.64854000 </v>
   <v>       0.14860000       0.12266000       0.60573000 </v>
   <v>       0.33171000       0.97961000       0.21539000 </v>
   <v>       0.38729000       0.11620000       0.20666000 </v>
   <v>       0.06089000       0.20666000       0.24317000 </v>
   <v>       0.09890000       0.12822000       0.19571000 </v>
   <v>       0.70102000       0.30456000       0.49766000 </v>
   <v>       0.79997000       0.32913000       0.44902000 </v>
   <v>       0.09237000       0.48765000       0.61977000 </v>
   <v>       0.02910000       0.60237000       0.64459000 </v>
   <v>       0.75435000       0.07197000       0.74852000 </v>
   <v>       0.73624000       0.20788000       0.77442000 </v>
   <v>       0.76476000       0.41135000       0.79747000 </v>
   <v>       0.65514000       0.41265000       0.75698000 </v>
   <v>       0.22862000       0.75042000       0.52356000 </v>
   <v>       0.20800000       0.84733000       0.47640000 </v>
   <v>       0.67935000       0.26528000       0.61562000 </v>
   <v>       0.77229000       0.29233000       0.66687000 </v>
   <v>       0.96463000       0.17398000       0.81742000 </v>
   <v>       0.10701000       0.22155000       0.80518000 </v>
   <v>       0.50505000       0.50371000       0.69375000 </v>
   <v>       0.59752000       0.49718000       0.64323000 </v>
   <v>       0.72569000       0.48882000       0.32593000 </v>
   <v>       0.80691000       0.37108000       0.30435000 </v>
   <v>       0.71246000       0.66604000       0.60125000 </v>
   <v>       0.75685000       0.53404000       0.58830000 </v>
   <v>       0.88639000       0.39392000       0.38499000 </v>
   <v>       0.01498000       0.37995000       0.41768000 </v>
   <v>       0.33544000       0.89618000       0.60683000 </v>
   <v>       0.47639000       0.83538000       0.62651000 </v>
   <v>       0.49538000       0.50665000       0.31797000 </v>
   <v>       0.41471000       0.61633000       0.34177000 </v>
   <v>       0.69049000       0.22574000       0.22418000 </v>
   <v>       0.80224000       0.32160000       0.21422000 </v>
   <v>       0.40860000       0.14073000       0.50440000 </v>
   <v>       0.51433000       0.02735000       0.51171000 </v>
   <v>       0.27085000       0.83753000       0.39308000 </v>
   <v>       0.17303000       0.94322000       0.39875000 </v>
   <v>       0.37808000       0.94156000       0.81444000 </v>
   <v>       0.23421000       0.88868000       0.82235000 </v>
   <v>       0.85596000       0.70043000       0.75892000 </v>
   <v>       0.88502000       0.71955000       0.82135000 </v>
   <v>       0.38146000       0.35944000       0.46429000 </v>
   <v>       0.33128000       0.35671000       0.52573000 </v>
   <v>       0.88079000       0.57671000       0.44339000 </v>
   <v>       0.90892000       0.71467000       0.42978000 </v>
   <v>       0.33994000       0.50309000       0.57957000 </v>
   <v>       0.32589000       0.37238000       0.61983000 </v>
   <v>       0.22531000       0.59410000       0.82218000 </v>
   <v>       0.29595000       0.59905000       0.77048000 </v>
   <v>       0.97775000       0.43589000       0.68917000 </v>
   <v>       0.91677000       0.38877000       0.73946000 </v>
   <v>       0.68998000       0.95994000       0.48934000 </v>
   <v>       0.57102000       0.84448000       0.48466000 </v>
   <v>       0.20853000       0.25261000       0.66203000 </v>
   <v>       0.35735000       0.20898000       0.67423000 </v>
   <v>       0.98846000       0.64638000       0.32343000 </v>
   <v>       0.90555000       0.62973000       0.27214000 </v>
   <v>       0.84685000       0.07562000       0.52094000 </v>
   <v>       0.87652000       0.92926000       0.52105000 </v>
   <v>       0.80038000       0.98551000       0.31139000 </v>
   <v>       0.72553000       0.99629000       0.36256000 </v>
   <v>       0.02616000       0.76891000       0.52879000 </v>
   <v>       0.89358000       0.71467000       0.50711000 </v>
   <v>       0.31117000       0.84801000       0.31014000 </v>
   <v>       0.43215000       0.87588000       0.34879000 </v>
   <v>       0.26731000       0.30048000       0.28353000 </v>
   <v>       0.28033000       0.34490000       0.34086000 </v>
   <v>       0.45372000       0.62291000       0.82060000 </v>
   <v>       0.59768000       0.57900000       0.82128000 </v>
   <v>       0.71001000       0.90293000       0.64119000 </v>
   <v>       0.66953000       0.92241000       0.58408000 </v>
   <v>       0.50249000       0.13735000       0.72938000 </v>
   <v>       0.58444000       0.15249000       0.67853000 </v>
   <v>       0.96744000       0.06514000       0.35591000 </v>
   <v>       0.09576000       0.15558000       0.35085000 </v>
   <v>       0.25034000       0.37817000       0.78680000 </v>
   <v>       0.25785000       0.27508000       0.74257000 </v>
   <v>       0.73002000       0.76125000       0.34425000 </v>
   <v>       0.66991000       0.67289000       0.38585000 </v>
   <v>       0.92274000       0.85243000       0.36542000 </v>
   <v>       0.05799000       0.80372000       0.39679000 </v>
   <v>       0.09773000       0.19482000       0.42028000 </v>
   <v>       0.18085000       0.27739000       0.46630000 </v>
   <v>       0.57558000       0.21269000       0.54471000 </v>
   <v>       0.55428000       0.35642000       0.56011000 </v>
   <v>       0.93760000       0.52484000       0.54042000 </v>
   <v>       0.90963000       0.38245000       0.56058000 </v>
   <v>       0.49156000       0.91252000       0.72854000 </v>
   <v>       0.49868000       0.79637000       0.76326000 </v>
   <v>       0.65670000       0.88694000       0.79557000 </v>
   <v>       0.72655000       0.01264000       0.81905000 </v>
   <v>       0.31307000       0.34444000       0.19880000 </v>
   <v>       0.43553000       0.35035000       0.23154000 </v>
   <v>       0.99066000       0.23704000       0.51227000 </v>
   <v>       0.99831000       0.18916000       0.56974000 </v>
   <v>       0.56670000       0.30180000       0.34739000 </v>
   <v>       0.51704000       0.18785000       0.31640000 </v>
   <v>       0.62528000       0.47197000       0.23401000 </v>
   <v>       0.52105000       0.57758000       0.23302000 </v>
   <v>       0.69529000       0.59928000       0.70275000 </v>
   <v>       0.69379000       0.74859000       0.72207000 </v>
   <v>       0.86530000       0.99014000       0.68624000 </v>
   <v>       0.76223000       0.08046000       0.66464000 </v>
   <v>       0.55057000       0.09683000       0.38107000 </v>
   <v>       0.57269000       0.96849000       0.41790000 </v>
   <v>       0.13337000       0.65231000       0.19704000 </v>
   <v>       0.10101000       0.63710000       0.25423000 </v>
   <v>       0.34456000       0.70610000       0.67450000 </v>
   <v>       0.25480000       0.58081000       0.67879000 </v>
   <v>       0.62101000       0.62629000       0.52735000 </v>
   <v>       0.54347000       0.58367000       0.47669000 </v>
   <v>       0.58472000       0.05666000       0.24259000 </v>
   <v>       0.73325000       0.02966000       0.24127000 </v>
   <v>       0.22252000       0.94243000       0.54986000 </v>
   <v>       0.32167000       0.05584000       0.56230000 </v>
   <v>       0.86328000       0.72596000       0.65582000 </v>
   <v>       0.91498000       0.77597000       0.60462000 </v>
   <v>       0.07365000       0.00327000       0.79972000 </v>
   <v>       0.02738000       0.86064000       0.78685000 </v>
   <v>       0.42405000       0.64140000       0.53113000 </v>
   <v>       0.35411000       0.70617000       0.58595000 </v>
   <v>       0.15911000       0.96217000       0.26530000 </v>
   <v>       0.19848000       0.81679000       0.24213000 </v>
   <v>       0.58714000       0.38426000       0.44298000 </v>
   <v>       0.48781000       0.46820000       0.40416000 </v>
   <v>       0.89379000       0.86446000       0.22754000 </v>
   <v>       0.95157000       0.00900000       0.22826000 </v>
   <v>       0.99680000       0.44080000       0.26248000 </v>
   <v>       0.02225000       0.38549000       0.20437000 </v>
   <v>       0.07318000       0.94402000       0.71690000 </v>
   <v>       0.01790000       0.86813000       0.66938000 </v>
   <v>       0.93732000       0.54775000       0.79733000 </v>
   <v>       0.95633000       0.44754000       0.84201000 </v>
   <v>       0.49076000       0.14956000       0.83913000 </v>
   <v>       0.38498000       0.20426000       0.80027000 </v>
  </varray>
 </structure>
</modeling>
