bader                                   
           1
    10.223900    0.000000    0.000000
     0.000000   10.223900    0.000000
     0.000000    0.000000   26.422000
   Cu   Ag   O    H 
  62   2  70 140
Direct configuration=     1
   0.95064000  0.00704000  0.97497000
   0.19191000  0.24539000  0.97925000
   0.94389000  0.01256000  0.11889000
   0.20346000  0.24047000  0.11888000
   0.19870000  0.00212000  0.97988000
   0.94792000  0.26104000  0.98087000
   0.18916000  0.99037000  0.12253000
   0.96770000  0.25062000  0.11890000
   0.32766000  0.10941000  0.91639000
   0.05952000  0.38631000  0.91193000
   0.33322000  0.13068000  0.04385000
   0.06136000  0.37404000  0.05201000
   0.07454000  0.13621000  0.90893000
   0.06452000  0.11706000  0.05026000
   0.30801000  0.37538000  0.04860000
   0.45437000  0.97338000  0.98141000
   0.70650000  0.24343000  0.98402000
   0.43126000  0.00146000  0.11914000
   0.69368000  0.26357000  0.12608000
   0.69810000  0.99859000  0.98982000
   0.45825000  0.24454000  0.98070000
   0.69158000  0.00328000  0.11161000
   0.45214000  0.24642000  0.11364000
   0.80947000  0.12616000  0.91873000
   0.58025000  0.36935000  0.91258000
   0.82135000  0.12693000  0.05590000
   0.57326000  0.37776000  0.04973000
   0.57806000  0.11492000  0.91264000
   0.81606000  0.37135000  0.91644000
   0.57143000  0.11943000  0.05007000
   0.81511000  0.36750000  0.05373000
   0.95075000  0.50738000  0.98039000
   0.20544000  0.75615000  0.98309000
   0.93040000  0.50036000  0.11669000
   0.19948000  0.75234000  0.11667000
   0.18780000  0.49448000  0.98224000
   0.94885000  0.75599000  0.98008000
   0.16192000  0.49100000  0.12106000
   0.94134000  0.74031000  0.12241000
   0.31837000  0.63443000  0.91490000
   0.08832000  0.87738000  0.91646000
   0.31570000  0.61381000  0.04572000
   0.07469000  0.88457000  0.05169000
   0.05188000  0.63124000  0.90976000
   0.32360000  0.86979000  0.91332000
   0.07592000  0.62515000  0.04934000
   0.31699000  0.87353000  0.05180000
   0.44602000  0.49060000  0.97850000
   0.69461000  0.75385000  0.97839000
   0.69795000  0.75447000  0.11448000
   0.68724000  0.50073000  0.97939000
   0.44779000  0.73832000  0.97788000
   0.70048000  0.51842000  0.12122000
   0.44691000  0.75126000  0.11230000
   0.82494000  0.64038000  0.91967000
   0.57075000  0.87112000  0.90773000
   0.82430000  0.62318000  0.04708000
   0.56744000  0.87625000  0.05083000
   0.57361000  0.61930000  0.90920000
   0.80759000  0.88124000  0.91669000
   0.57826000  0.63325000  0.04623000
   0.83693000  0.87205000  0.05283000
   0.32549000  0.35874000  0.90086000
   0.43642000  0.50279000  0.12241000
   0.57073000  0.78731000  0.25095000
   0.81309000  0.66861000  0.22616000
   0.08206000  0.17507000  0.62562000
   0.41615000  0.02394000  0.20222000
   0.08104000  0.11290000  0.23274000
   0.71360000  0.29438000  0.45994000
   0.09986000  0.53055000  0.65186000
   0.79038000  0.12322000  0.77678000
   0.66809000  0.39157000  0.79121000
   0.18196000  0.83045000  0.51384000
   0.71666000  0.22883000  0.64800000
   0.05524000  0.15332000  0.82468000
   0.59227000  0.47896000  0.68262000
   0.74863000  0.39568000  0.33308000
   0.67651000  0.58781000  0.58817000
   0.92974000  0.42953000  0.41537000
   0.38257000  0.82501000  0.62887000
   0.43977000  0.52392000  0.34624000
   0.70850000  0.31158000  0.20525000
   0.46377000  0.09821000  0.52962000
   0.20172000  0.86121000  0.41614000
   0.32749000  0.86697000  0.82815000
   0.92686000  0.71054000  0.78843000
   0.32093000  0.31613000  0.48946000
   0.85665000  0.66339000  0.45400000
   0.35519000  0.40817000  0.58580000
   0.29496000  0.54976000  0.80315000
   0.89264000  0.40472000  0.70408000
   0.58860000  0.93510000  0.47903000
   0.29195000  0.28250000  0.67493000
   0.97873000  0.58933000  0.29187000
   0.80560000  0.99158000  0.52088000
   0.81750000  0.97241000  0.34809000
   0.93419000  0.76286000  0.53708000
   0.37596000  0.80703000  0.33566000
   0.21909000  0.30466000  0.31572000
   0.54371000  0.65161000  0.82805000
   0.66089000  0.86119000  0.61185000
   0.50022000  0.11494000  0.69361000
   0.05877000  0.08709000  0.37089000
   0.22881000  0.28318000  0.77806000
   0.67771000  0.68090000  0.34918000
   0.97514000  0.77427000  0.38147000
   0.09640000  0.25780000  0.45176000
   0.62658000  0.28910000  0.55651000
   0.90045000  0.48047000  0.56932000
   0.55527000  0.84968000  0.74346000
   0.69134000  0.92061000  0.82705000
   0.36296000  0.29285000  0.22400000
   0.93612000  0.22933000  0.54360000
   0.50265000  0.23419000  0.34661000
   0.54871000  0.50155000  0.25385000
   0.75273000  0.67215000  0.71549000
   0.76820000  0.99556000  0.68117000
   0.57022000  0.99541000  0.38053000
   0.16111000  0.67762000  0.22917000
   0.32164000  0.62800000  0.69825000
   0.55355000  0.65700000  0.50185000
   0.66975000  0.08801000  0.25820000
   0.24744000  0.00821000  0.57960000
   0.94870000  0.75280000  0.63778000
   0.10058000  0.92217000  0.78184000
   0.34331000  0.64681000  0.55427000
   0.23472000  0.90133000  0.26025000
   0.49854000  0.44079000  0.44093000
   0.87330000  0.95730000  0.23513000
   0.96800000  0.37861000  0.23481000
   0.04294000  0.95344000  0.68175000
   0.92330000  0.45326000  0.80694000
   0.44380000  0.13066000  0.80501000
   0.52202000  0.79155000  0.21877000
   0.51230000  0.78908000  0.27901000
   0.73271000  0.71582000  0.23619000
   0.80139000  0.63773000  0.19121000
   0.05058000  0.10393000  0.64854000
   0.14860000  0.12266000  0.60573000
   0.33171000  0.97961000  0.21539000
   0.38729000  0.11620000  0.20666000
   0.06089000  0.20666000  0.24317000
   0.09890000  0.12822000  0.19571000
   0.70102000  0.30456000  0.49766000
   0.79997000  0.32913000  0.44902000
   0.09237000  0.48765000  0.61977000
   0.02910000  0.60237000  0.64459000
   0.75435000  0.07197000  0.74852000
   0.73624000  0.20788000  0.77442000
   0.76476000  0.41135000  0.79747000
   0.65514000  0.41265000  0.75698000
   0.22862000  0.75042000  0.52356000
   0.20800000  0.84733000  0.47640000
   0.67935000  0.26528000  0.61562000
   0.77229000  0.29233000  0.66687000
   0.96463000  0.17398000  0.81742000
   0.10701000  0.22155000  0.80518000
   0.50505000  0.50371000  0.69375000
   0.59752000  0.49718000  0.64323000
   0.72569000  0.48882000  0.32593000
   0.80691000  0.37108000  0.30435000
   0.71246000  0.66604000  0.60125000
   0.75685000  0.53404000  0.58830000
   0.88639000  0.39392000  0.38499000
   0.01498000  0.37995000  0.41768000
   0.33544000  0.89618000  0.60683000
   0.47639000  0.83538000  0.62651000
   0.49538000  0.50665000  0.31797000
   0.41471000  0.61633000  0.34177000
   0.69049000  0.22574000  0.22418000
   0.80224000  0.32160000  0.21422000
   0.40860000  0.14073000  0.50440000
   0.51433000  0.02735000  0.51171000
   0.27085000  0.83753000  0.39308000
   0.17303000  0.94322000  0.39875000
   0.37808000  0.94156000  0.81444000
   0.23421000  0.88868000  0.82235000
   0.85596000  0.70043000  0.75892000
   0.88502000  0.71955000  0.82135000
   0.38146000  0.35944000  0.46429000
   0.33128000  0.35671000  0.52573000
   0.88079000  0.57671000  0.44339000
   0.90892000  0.71467000  0.42978000
   0.33994000  0.50309000  0.57957000
   0.32589000  0.37238000  0.61983000
   0.22531000  0.59410000  0.82218000
   0.29595000  0.59905000  0.77048000
   0.97775000  0.43589000  0.68917000
   0.91677000  0.38877000  0.73946000
   0.68998000  0.95994000  0.48934000
   0.57102000  0.84448000  0.48466000
   0.20853000  0.25261000  0.66203000
   0.35735000  0.20898000  0.67423000
   0.98846000  0.64638000  0.32343000
   0.90555000  0.62973000  0.27214000
   0.84685000  0.07562000  0.52094000
   0.87652000  0.92926000  0.52105000
   0.80038000  0.98551000  0.31139000
   0.72553000  0.99629000  0.36256000
   0.02616000  0.76891000  0.52879000
   0.89358000  0.71467000  0.50711000
   0.31117000  0.84801000  0.31014000
   0.43215000  0.87588000  0.34879000
   0.26731000  0.30048000  0.28353000
   0.28033000  0.34490000  0.34086000
   0.45372000  0.62291000  0.82060000
   0.59768000  0.57900000  0.82128000
   0.71001000  0.90293000  0.64119000
   0.66953000  0.92241000  0.58408000
   0.50249000  0.13735000  0.72938000
   0.58444000  0.15249000  0.67853000
   0.96744000  0.06514000  0.35591000
   0.09576000  0.15558000  0.35085000
   0.25034000  0.37817000  0.78680000
   0.25785000  0.27508000  0.74257000
   0.73002000  0.76125000  0.34425000
   0.66991000  0.67289000  0.38585000
   0.92274000  0.85243000  0.36542000
   0.05799000  0.80372000  0.39679000
   0.09773000  0.19482000  0.42028000
   0.18085000  0.27739000  0.46630000
   0.57558000  0.21269000  0.54471000
   0.55428000  0.35642000  0.56011000
   0.93760000  0.52484000  0.54042000
   0.90963000  0.38245000  0.56058000
   0.49156000  0.91252000  0.72854000
   0.49868000  0.79637000  0.76326000
   0.65670000  0.88694000  0.79557000
   0.72655000  0.01264000  0.81905000
   0.31307000  0.34444000  0.19880000
   0.43553000  0.35035000  0.23154000
   0.99066000  0.23704000  0.51227000
   0.99831000  0.18916000  0.56974000
   0.56670000  0.30180000  0.34739000
   0.51704000  0.18785000  0.31640000
   0.62528000  0.47197000  0.23401000
   0.52105000  0.57758000  0.23302000
   0.69529000  0.59928000  0.70275000
   0.69379000  0.74859000  0.72207000
   0.86530000  0.99014000  0.68624000
   0.76223000  0.08046000  0.66464000
   0.55057000  0.09683000  0.38107000
   0.57269000  0.96849000  0.41790000
   0.13337000  0.65231000  0.19704000
   0.10101000  0.63710000  0.25423000
   0.34456000  0.70610000  0.67450000
   0.25480000  0.58081000  0.67879000
   0.62101000  0.62629000  0.52735000
   0.54347000  0.58367000  0.47669000
   0.58472000  0.05666000  0.24259000
   0.73325000  0.02966000  0.24127000
   0.22252000  0.94243000  0.54986000
   0.32167000  0.05584000  0.56230000
   0.86328000  0.72596000  0.65582000
   0.91498000  0.77597000  0.60462000
   0.07365000  0.00327000  0.79972000
   0.02738000  0.86064000  0.78685000
   0.42405000  0.64140000  0.53113000
   0.35411000  0.70617000  0.58595000
   0.15911000  0.96217000  0.26530000
   0.19848000  0.81679000  0.24213000
   0.58714000  0.38426000  0.44298000
   0.48781000  0.46820000  0.40416000
   0.89379000  0.86446000  0.22754000
   0.95157000  0.00900000  0.22826000
   0.99680000  0.44080000  0.26248000
   0.02225000  0.38549000  0.20437000
   0.07318000  0.94402000  0.71690000
   0.01790000  0.86813000  0.66938000
   0.93732000  0.54775000  0.79733000
   0.95633000  0.44754000  0.84201000
   0.49076000  0.14956000  0.83913000
   0.38498000  0.20426000  0.80027000
